You are running Q-Chem version: 6.2.0

#
# job setting
#
local host:  itcotck
current dir: /home/cooksy_group/sgardner/kupper
input file:  FeVF2_SSR_b3lypDBJ_ccpVDZ_PCM_h2o_OPT_3.in
output file: 
nprocs     : 1
nthreads   : 16
#
# qchem installation setting
#
QC:          /opt/qchem/6.2.0
QCAUX:       /opt/qchem/6.2.0/qcaux
QCPROG:      /opt/qchem/6.2.0/exe/qcprog.exe_s
QCPROG_S:    /opt/qchem/6.2.0/exe/qcprog.exe_s
PARALLEL:    -DSERIAL
QCMPI:       seq
#
# qchem directory setting
#
qcrun:       qchem682305
QCSCRATCH:   /scratch/cooksy_group
QCLOCALSCR:  
QCTMPDIR:    /scratch/cooksy_group
QCFILEPREF:  /scratch/cooksy_group/qchem682305
QCSAVEDIR:   
workdirs:    /scratch/cooksy_group/qchem682305
workdir0:    /scratch/cooksy_group/qchem682305
partmpdirs =  
#
# parallel setting
#
QCRSH:           ssh
QCMPI:           seq
QCMPIRUN:        
QCMACHINEFILE:   /opt/qchem/6.2.0/bin/mpi/machines


#
# env setting
#
exported envs:   QC QCAUX QCSCRATCH QCRUNNAME QCFILEPREF QCPROG QCPROG_S GUIFILE

Running Job 1 of 1 FeVF2_SSR_b3lypDBJ_ccpVDZ_PCM_h2o_OPT_3.in
qchem FeVF2_SSR_b3lypDBJ_ccpVDZ_PCM_h2o_OPT_3.in_682305.0 /scratch/cooksy_group/qchem682305/ 1
/opt/qchem/6.2.0/exe/qcprog.exe_s FeVF2_SSR_b3lypDBJ_ccpVDZ_PCM_h2o_OPT_3.in_682305.0 /scratch/cooksy_group/qchem682305/
                  Welcome to Q-Chem
     A Quantum Leap Into The Future Of Chemistry


 Q-Chem 6.2, Q-Chem, Inc., Pleasanton, CA (2024)

 E. Epifanovsky,  A. T. B. Gilbert,  Xintian Feng,  Joonho Lee,  Yuezhi Mao,  
 N. Mardirossian,  P. Pokhilko,  A. White,  M. Wormit,  M. P. Coons,  
 A. L. Dempwolff,  Zhengting Gan,  D. Hait,  P. R. Horn,  L. D. Jacobson,  
 I. Kaliman,  J. Kussmann,  A. W. Lange,  Ka Un Lao,  D. S. Levine,  Jie Liu,  
 S. C. McKenzie,  A. F. Morrison,  K. D. Nanda,  F. Plasser,  D. R. Rehn,  
 M. L. Vidal,  Zhi-Qiang You,  Ying Zhu,  Huseyin Aksu,  B. Alam,  
 B. Albrecht,  A. Aldossary,  E. Alguire,  J. H. Andersen,  
 J. E. Arias-Martinez,  V. Athavale,  D. Barton,  K. Begam,  A. Behn,  
 N. Bellonzi,  Y. A. Bernard,  E. J. Berquist,  H. Burton,  A. Carreras,  
 K. Carter-Fenk,  Mathew Chow,  Romit Chakraborty,  Chandrima Chakravarty,  
 Junhan Chen,  A. D. Chien,  K. D. Closser,  V. Cofer-Shabica,  L. Cunha,  
 S. Dasgupta,  Jia Deng,  Joseph Dickinson,  M. de Wergifosse,  
 M. Diedenhofen,  Hainam Do,  Wenjie Dou,  S. Ehlert,  Po-Tung Fang,  
 S. Fatehi,  Qingguo Feng,  Jonathan Fetherolf,  T. Friedhoff,  
 Thomas Froitzheim,  Sarai Folkestad,  B. Ganoe,  J. Gayvert,  Qinghui Ge,  
 G. Gidofalvi,  M. Gimferrer,  M. Goldey,  Montgomery Gray,  J. Gomes,  
 C. Gonzalez-Espinoza,  S. Gulania,  A. Gunina,  J. A. Gyamfi,  
 M. W. D. Hanson-Heine,  P. H. P. Harbach,  A. W. Hauser,  M. F. Herbst,  
 M. Hernandez Vera,  M. Hodecker,  Z. C. Holden,  S. Houck,  Xunkun Huang,  
 Kerwin Hui,  B. C. Huynh,  K. Ikeda,  M. Ivanov,  Nayanthara K. Jayadev,  
 Hyunjun Ji,  Zuxin Jin,  Hanjie Jiang,  Subrata Jana,  B. Kaduk,  
 S. Kaehler,  R. Kang,  K. Khistyaev,  Jaehoon Kim,  Yongbin Kim,  
 P. Klunzinger,  Z. Koczor-Benda,  Joong Hoon Koh,  D. Kosenkov,  
 Saikiran Kotaru,  L. Koulias,  T. Kowalczyk,  C. M. Krauter,  K. Kue,  
 A. Kunitsa,  T. Kus,  A. Landau,  K. V. Lawler,  D. Lefrancois,  S. Lehtola,  
 Rain Li,  Shaozhi Li,  Tao E. Li,  Yi-Pei Li,  Jiashu Liang,  M. Liebenthal,  
 Hung-Hsuan Lin,  You-Sheng Lin,  Fenglai Liu,  Kuan-Yu Liu,  Xiao Liu,  
 M. Loipersberger,  A. Luenser,  C. Malbon,  Aniket Mandal,  Manisha,  
 A. Manjanath,  P. Manohar,  E. Mansoor,  S. F. Manzer,  Shan-Ping Mao,  
 A. V. Marenich,  T. Markovich,  S. Mason,  F. Matz,  S. A. Maurer,  
 Samuel May,  Alexandra McIsaac,  P. F. McLaughlin,  M. F. S. J. Menger,  
 J.-M. Mewes,  S. A. Mewes,  P. Morgante,  Mohammad Mostafanejad,  
 Madhubani Mukherjee,  J. W. Mullinax,  Quyen Nguyen,  Avik Kumar Ojha,  
 K. J. Oosterbaan,  Eno Paenurk,  Xiaoliang Pan,  G. Paran,  V. Parravicini,  
 Alexander C. Paul,  Suranjan K. Paul,  F. Pavosevic,  Zheng Pei,  S. Prager,  
 E. I. Proynov,  E. Ramos,  B. Rana,  A. E. Rask,  A. Rettig,  R. M. Richard,  
 F. Rob,  E. Rossomme,  T. Scheele,  M. Scheurer,  M. Schneider,  
 P. E. Schneider,  Tim K. Schramm,  N. Sergueev,  S. M. Sharada,  
 Hengyuan Shen,  W. Skomorowski,  D. W. Small,  C. J. Stein,  
 Alistair J. Sterling,  Yingli Su,  Yu-Chuan Su,  E. J. Sundstrom,  
 J. Talbot,  Zhen Tao,  J. Thirman,  Hung-Yi Tsai,  T. Tsuchimochi,  
 N. M. Tubman,  C. Utku,  S. P. Veccham,  O. Vydrov,  Rahel Weiss,  
 J. Wenzel,  Jonathan Wong,  J. Witte,  H. Wu,  Yanze Wu,  A. Yamada,  
 Chou-Hsun Yang,  Kun Yao,  S. Yeganeh,  S. R. Yost,  Qi Yu,  A. Zech,  
 F. Zeller,  Chongxiao Zhao,  Igor Ying Zhang,  Xing Zhang,  Yu Zhang,  
 D. Zuev,  A. Aspuru-Guzik,  A. T. Bell,  N. A. Besley,  K. B. Bravaya,  
 B. R. Brooks,  D. Casanova,  Jeng-Da Chai,  Hsing-Ta Chen,  S. Coriani,  
 C. J. Cramer,  A. E. DePrince, III,  R. A. DiStasio Jr.,  A. Dreuw,  
 B. D. Dunietz,  T. R. Furlani,  W. A. Goddard III,  S. Grimme,  
 S. Hammes-Schiffer,  T. Head-Gordon,  W. J. Hehre,  Chao-Ping Hsu,  
 T.-C. Jagau,  Yousung Jung,  A. Klamt,  Jing Kong,  D. S. Lambrecht,  
 Xiangyuan Li,  WanZhen Liang,  N. J. Mayhall,  C. W. McCurdy,  J. B. Neaton,  
 T. Neudecker,  C. Ochsenfeld,  J. A. Parkhill,  R. Peverati,  
 V. A. Rassolov,  Haisheng Ren,  Yihan Shao,  L. V. Slipchenko,  
 R. P. Steele,  J. E. Subotnik,  A. J. W. Thom,  A. Tkatchenko,  
 D. G. Truhlar,  T. Van Voorhis,  Fan Wang,  T. A. Wesolowski,  K. B. Whaley,  
 H. L. Woodcock III,  P. M. Zimmerman,  S. Faraji,  P. M. W. Gill,  
 M. Head-Gordon,  J. M. Herbert,  A. I. Krylov

 Contributors to earlier versions of Q-Chem not listed above: 
 R. D. Adamson,  B. Austin,  R. Baer,  J. Baker,  G. J. O. Beran,  
 K. Brandhorst,  S. T. Brown,  E. F. C. Byrd,  Arup K. Chakraborty,  
 G. K. L. Chan,  Chun-Min Chang,  Yunqing Chen,  C.-L. Cheng,  
 Siu Hung Chien,  D. M. Chipman,  D. L. Crittenden,  H. Dachsel,  
 R. J. Doerksen,  A. D. Dutoi,  R. G. Edgar,  J. Fosso-Tande,  
 L. Fusti-Molnar,  D. Ghosh,  A. Ghysels,  A. Golubeva-Zadorozhnaya,  
 J. Gonthier,  M. S. Gordon,  S. R. Gwaltney,  G. Hawkins,  J. E. Herr,  
 A. Heyden,  S. Hirata,  E. G. Hohenstein,  G. Kedziora,  F. J. Keil,  
 C. Kelley,  Jihan Kim,  R. A. King,  R. Z. Khaliullin,  P. P. Korambath,  
 W. Kurlancheek,  A. Laurent,  A. M. Lee,  M. S. Lee,  S. V. Levchenko,  
 Ching Yeh Lin,  D. Liotard,  E. Livshits,  R. C. Lochan,  I. Lotan,  
 L. A. Martinez-Martinez,  P. E. Maslen,  N. Nair,  D. P. O'Neill,  
 D. Neuhauser,  E. Neuscamman,  C. M. Oana,  R. Olivares-Amaya,  R. Olson,  
 T. M. Perrine,  B. Peters,  P. A. Pieniazek,  A. Prociuk,  Y. M. Rhee,  
 J. Ritchie,  M. A. Rohrdanz,  E. Rosta,  N. J. Russ,  H. F. Schaefer III,  
 M. W. Schmidt,  N. E. Schultz,  S. Sharma,  N. Shenvi,  C. D. Sherrill,  
 A. C. Simmonett,  A. Sodt,  T. Stein,  D. Stuck,  K. S. Thanthiriwatte,  
 V. Vanovschi,  L. Vogt,  Tao Wang,  A. Warshel,  M. A. Watson,  
 C. F. Williams,  Q. Wu,  X. Xu,  Jun Yang,  W. Zhang,  Yan Zhao

   Please cite Q-Chem as follows:
  "Software for the frontiers of quantum chemistry:
   An overview of developments in the Q-Chem 5 package"
   J. Chem. Phys. 155, 084801 (2021)
   https://doi.org/10.1063/5.0055522 (open access)

 Q-Chem 6.2.0 for Intel X86 EM64T Linux

 Parts of Q-Chem use Armadillo 9.900.5 (Nocturnal Misbehaviour).
 http://arma.sourceforge.net/

 Q-Chem begins on Mon Sep  8 14:12:41 2025  

 Host: 
0

     Scratch files written to /scratch/cooksy_group/qchem682305//
 May224 |scratch|qcdevops|jenkins|workspace|build_RNUM -1
 Processing $rem in /opt/qchem/6.2.0/config/preferences:
 Processing $rem in /home/cooksy_group/.qchemrc:
 Symmetry turned off for PCM/SM12/SMD calculation

 Checking the input file for inconsistencies... 	...done.

--------------------------------------------------------------
User input:
--------------------------------------------------------------
$molecule
-2 6
C   -6.5211038   -2.6273692    1.1069871
C   -6.6090646   -1.5477759    2.1712627
N   -5.4612399   -1.5714888    2.9270095
O   -7.5358215   -0.7546744    2.3342848
C   -4.4428102   -2.5103787    2.3853883
C   -5.2666522   -0.4771507    3.8903683
O   -3.5151167   -1.8397971    1.5946749
C   -3.7121567   -3.3296892    3.5002965
H   -7.4735203   -3.1697466    1.0258978
H   -6.3384861   -2.1266769    0.1413418
C   -4.9184495    0.8851789    3.2473171
N   -4.1182310    0.8536665    2.1645924
C   -4.2690498   -0.7760258    5.0137915
C   -3.7073020    2.0634430    1.4699146
C   -2.6529031    2.9008952    2.1979981
O   -1.4382169    2.1724504    2.5017060
C   -0.5998818    1.9189952    1.4762345
C    0.5945925    1.0964301    1.9034282
O   -0.8078300    2.3037011    0.3383988
C    0.3111078   -0.4251226    1.7608133
C    0.0936768   -0.7844713    0.2505459
O   -0.8269956   -0.7603656    2.5065116
C    1.5255223   -1.2378295    2.2648427
C    1.3899665   -2.7731058    2.2185520
O    2.4159136   -3.4492808    2.3568539
O    0.2087544   -3.2969115    2.0565351
H   -4.5817460    2.7207344    1.3233513
H   -3.3328953    1.7716520    0.4805420
H   -3.0281439    3.2189537    3.1779438
H   -2.4076047    3.7837039    1.5884147
H    0.8378095    1.3100483    2.9538805
H    1.7104810   -0.9644011    3.3188550
H    2.4335404   -0.9744314    1.7010667
H   -6.2558559   -0.3052592    4.3366721
H   -3.2526547   -0.9431021    4.6271154
H   -4.5780775   -1.6599579    5.5862435
H   -4.2379049    0.0928314    5.6880066
O    0.8922334   -0.4001057   -0.6087617
O   -0.9405548   -1.5404963    0.0275323
H    1.4400704    1.3679347    1.2584204
O   -5.3376921    1.9308853    3.7631239
H   -3.8082168   -0.0687972    1.8197671
O   -4.3553071   -3.9303593    4.3640909
O   -2.4213407   -3.3582348    3.3745456
C   -5.3381844   -3.4806149    1.5572984
H   -4.7520023   -3.9112395    0.7350457
H   -5.6860967   -4.2903886    2.2146138
Fe   -1.6316915   -2.3197436    1.7926087
O   -1.7377027   -4.2904383    0.6235525
H   -0.8336377   -4.4910222    0.9481570
H   -2.2989175   -4.9341515    1.0879867
$end

$rem
BASIS  =  gen
DFT_D  =  FALSE
GUI  =  2
JOB_TYPE  =  Optimization
MEM_TOTAL  =  30000
METHOD  =  B3LYP
SCF_CONVERGENCE  =  8
SCF_MAX_CYCLES  =  200
SOLVENT_METHOD  =  PCM
$end

$geom_opt
MAXITER  200
$end

$pcm
THEORY  CPCM
$end

$solvent
DIELECTRIC  78.39
$end

$van_der_waals
26   2.44
$end

!----------------------------------------------------------------------
! Basis Set Exchange
! Version 0.11
! https://www.basissetexchange.org
!----------------------------------------------------------------------
!   Basis set: cc-pVDZ
! Description: cc-pVDZ
!        Role: orbital
!     Version: 1  (Data from ccRepo/Grant Hill)
!----------------------------------------------------------------------

$rem
BASIS GEN
PURECART 11
$end

$basis
H     0
S   4   1.00
1.301000D+01           1.968500D-02
1.962000D+00           1.379770D-01
4.446000D-01           4.781480D-01
1.220000D-01           5.012400D-01
S   1   1.00
1.220000D-01           1.000000D+00
P   1   1.00
7.270000D-01           1.0000000
****
C     0
S   9   1.00
6.665000D+03           6.920000D-04
1.000000D+03           5.329000D-03
2.280000D+02           2.707700D-02
6.471000D+01           1.017180D-01
2.106000D+01           2.747400D-01
7.495000D+00           4.485640D-01
2.797000D+00           2.850740D-01
5.215000D-01           1.520400D-02
1.596000D-01          -3.191000D-03
S   9   1.00
6.665000D+03          -1.460000D-04
1.000000D+03          -1.154000D-03
2.280000D+02          -5.725000D-03
6.471000D+01          -2.331200D-02
2.106000D+01          -6.395500D-02
7.495000D+00          -1.499810D-01
2.797000D+00          -1.272620D-01
5.215000D-01           5.445290D-01
1.596000D-01           5.804960D-01
S   1   1.00
1.596000D-01           1.000000D+00
P   4   1.00
9.439000D+00           3.810900D-02
2.002000D+00           2.094800D-01
5.456000D-01           5.085570D-01
1.517000D-01           4.688420D-01
P   1   1.00
1.517000D-01           1.000000D+00
D   1   1.00
5.500000D-01           1.0000000
****
N     0
S   9   1.00
9.046000D+03           7.000000D-04
1.357000D+03           5.389000D-03
3.093000D+02           2.740600D-02
8.773000D+01           1.032070D-01
2.856000D+01           2.787230D-01
1.021000D+01           4.485400D-01
3.838000D+00           2.782380D-01
7.466000D-01           1.544000D-02
2.248000D-01          -2.864000D-03
S   9   1.00
9.046000D+03          -1.530000D-04
1.357000D+03          -1.208000D-03
3.093000D+02          -5.992000D-03
8.773000D+01          -2.454400D-02
2.856000D+01          -6.745900D-02
1.021000D+01          -1.580780D-01
3.838000D+00          -1.218310D-01
7.466000D-01           5.490030D-01
2.248000D-01           5.788150D-01
S   1   1.00
2.248000D-01           1.000000D+00
P   4   1.00
1.355000D+01           3.991900D-02
2.917000D+00           2.171690D-01
7.973000D-01           5.103190D-01
2.185000D-01           4.622140D-01
P   1   1.00
2.185000D-01           1.000000D+00
D   1   1.00
8.170000D-01           1.0000000
****
O     0
S   9   1.00
1.172000D+04           7.100000D-04
1.759000D+03           5.470000D-03
4.008000D+02           2.783700D-02
1.137000D+02           1.048000D-01
3.703000D+01           2.830620D-01
1.327000D+01           4.487190D-01
5.025000D+00           2.709520D-01
1.013000D+00           1.545800D-02
3.023000D-01          -2.585000D-03
S   9   1.00
1.172000D+04          -1.600000D-04
1.759000D+03          -1.263000D-03
4.008000D+02          -6.267000D-03
1.137000D+02          -2.571600D-02
3.703000D+01          -7.092400D-02
1.327000D+01          -1.654110D-01
5.025000D+00          -1.169550D-01
1.013000D+00           5.573680D-01
3.023000D-01           5.727590D-01
S   1   1.00
3.023000D-01           1.000000D+00
P   4   1.00
1.770000D+01           4.301800D-02
3.854000D+00           2.289130D-01
1.046000D+00           5.087280D-01
2.753000D-01           4.605310D-01
P   1   1.00
2.753000D-01           1.000000D+00
D   1   1.00
1.185000D+00           1.0000000
****
Fe     0
S   20   1.00
4.316265D+06           8.048803D-06
6.463424D+05           6.258306D-05
1.470897D+05           3.290239D-04
4.166152D+04           1.387355D-03
1.359077D+04           5.023256D-03
4.905750D+03           1.610140D-02
1.912746D+03           4.590034D-02
7.926043D+02           1.136154D-01
3.448065D+02           2.283869D-01
1.558999D+02           3.221159D-01
7.223091D+01           2.383661D-01
3.272506D+01           7.404667D-02
1.566762D+01           9.214197D-02
7.503483D+00           9.339790D-02
3.312223D+00           1.573965D-02
1.558471D+00          -4.186682D-04
6.839140D-01           5.376318D-05
1.467570D-01          -3.816654D-05
7.058300D-02           4.319603D-05
3.144900D-02          -3.401019D-06
S   20   1.00
4.316265D+06          -4.155954D-06
6.463424D+05          -3.231401D-05
1.470897D+05          -1.699525D-04
4.166152D+04          -7.171369D-04
1.359077D+04          -2.603625D-03
4.905750D+03          -8.399109D-03
1.912746D+03          -2.434109D-02
7.926043D+02          -6.251948D-02
3.448065D+02          -1.365929D-01
1.558999D+02          -2.312707D-01
7.223091D+01          -2.383734D-01
3.272506D+01           3.123837D-02
1.566762D+01           5.086818D-01
7.503483D+00           4.987695D-01
3.312223D+00           9.033552D-02
1.558471D+00          -6.005337D-03
6.839140D-01           2.312454D-04
1.467570D-01          -5.643680D-04
7.058300D-02           4.992260D-04
3.144900D-02          -1.015293D-04
S   20   1.00
4.316265D+06           9.532178D-07
6.463424D+05           7.414605D-06
1.470897D+05           3.898393D-05
4.166152D+04           1.647152D-04
1.359077D+04           5.985980D-04
4.905750D+03           1.942390D-03
1.912746D+03           5.687237D-03
7.926043D+02           1.501329D-02
3.448065D+02           3.452455D-02
1.558999D+02           6.495820D-02
7.223091D+01           7.716194D-02
3.272506D+01          -1.873411D-02
1.566762D+01          -3.009185D-01
7.503483D+00          -4.554661D-01
3.312223D+00           1.286463D-01
1.558471D+00           7.183316D-01
6.839140D-01           4.051743D-01
1.467570D-01           2.168227D-02
7.058300D-02          -8.343566D-03
3.144900D-02           3.658979D-03
S   20   1.00
4.316265D+06          -2.063008D-07
6.463424D+05          -1.604169D-06
1.470897D+05          -8.438437D-06
4.166152D+04          -3.563151D-05
1.359077D+04          -1.295998D-04
4.905750D+03          -4.201534D-04
1.912746D+03          -1.231954D-03
7.926043D+02          -3.248922D-03
3.448065D+02          -7.493717D-03
1.558999D+02          -1.410102D-02
7.223091D+01          -1.691600D-02
3.272506D+01           4.218996D-03
1.566762D+01           6.833810D-02
7.503483D+00           1.098201D-01
3.312223D+00          -4.009005D-02
1.558471D+00          -2.174739D-01
6.839140D-01          -2.465135D-01
1.467570D-01           2.731435D-01
7.058300D-02           5.748321D-01
3.144900D-02           3.012713D-01
S   20   1.00
4.316265D+06          -4.009367D-07
6.463424D+05          -3.189255D-06
1.470897D+05          -1.623079D-05
4.166152D+04          -7.157920D-05
1.359077D+04          -2.463958D-04
4.905750D+03          -8.544907D-04
1.912746D+03          -2.307593D-03
7.926043D+02          -6.728292D-03
3.448065D+02          -1.366165D-02
1.558999D+02          -3.062240D-02
7.223091D+01          -2.631137D-02
3.272506D+01          -9.760183D-03
1.566762D+01           1.801906D-01
7.503483D+00           1.529634D-01
3.312223D+00           5.505413D-02
1.558471D+00          -9.551364D-01
6.839140D-01           2.586813D-01
1.467570D-01           1.834049D+00
7.058300D-02          -9.333240D-01
3.144900D-02          -6.981605D-01
S   1   1.00
3.144900D-02           1.000000D+00
P   16   1.00
1.774569D+04           4.100000D-05
4.200721D+03           3.690000D-04
1.364429D+03           2.129000D-03
5.220806D+02           9.369000D-03
2.214595D+02           3.309700D-02
1.009096D+02           9.443100D-02
4.840115D+01           2.080770D-01
2.398536D+01           3.323330D-01
1.218250D+01           3.329870D-01
6.242298D+00           1.568430D-01
3.110944D+00           2.154900D-02
1.509958D+00          -2.095000D-03
7.108450D-01          -1.739000D-03
2.731900D-01          -3.000000D-04
1.042330D-01           2.900000D-05
3.829100D-02          -1.100000D-05
P   16   1.00
1.774569D+04          -1.500000D-05
4.200721D+03          -1.300000D-04
1.364429D+03          -7.510000D-04
5.220806D+02          -3.329000D-03
2.214595D+02          -1.191200D-02
1.009096D+02          -3.493300D-02
4.840115D+01          -7.998900D-02
2.398536D+01          -1.346360D-01
1.218250D+01          -1.385980D-01
6.242298D+00           3.027800D-02
3.110944D+00           3.332160D-01
1.509958D+00           4.561530D-01
7.108450D-01           2.850510D-01
2.731900D-01           4.614400D-02
1.042330D-01          -3.249000D-03
3.829100D-02           1.357000D-03
P   16   1.00
1.774569D+04           5.000000D-06
4.200721D+03           4.200000D-05
1.364429D+03           2.410000D-04
5.220806D+02           1.085000D-03
2.214595D+02           3.831000D-03
1.009096D+02           1.142300D-02
4.840115D+01           2.579200D-02
2.398536D+01           4.481800D-02
1.218250D+01           4.459800D-02
6.242298D+00          -1.117700D-02
3.110944D+00          -1.381340D-01
1.509958D+00          -1.882850D-01
7.108450D-01          -1.073990D-01
2.731900D-01           4.448630D-01
1.042330D-01           6.402390D-01
3.829100D-02           6.445700D-02
P   16   1.00
1.774569D+04           3.000000D-06
4.200721D+03           2.900000D-05
1.364429D+03           1.650000D-04
5.220806D+02           7.340000D-04
2.214595D+02           2.626000D-03
1.009096D+02           7.725000D-03
4.840115D+01           1.773300D-02
2.398536D+01           3.005500D-02
1.218250D+01           3.109400D-02
6.242298D+00          -1.004800D-02
3.110944D+00          -8.830600D-02
1.509958D+00          -1.298240D-01
7.108450D-01          -7.693700D-02
2.731900D-01           2.126610D-01
1.042330D-01           5.730610D-01
3.829100D-02           3.696510D-01
P   1   1.00
3.829100D-02           1.000000D+00
D   8   1.00
1.133440D+02           3.530000D-03
3.364140D+01           2.578400D-02
1.233100D+01           9.911900D-02
4.994780D+00           2.390730D-01
2.072800D+00           3.571990D-01
8.307530D-01           3.621880D-01
3.091780D-01           2.364610D-01
1.001300D-01           6.011800D-02
D   8   1.00
1.133440D+02          -3.890000D-03
3.364140D+01          -2.844200D-02
1.233100D+01          -1.124290D-01
4.994780D+00          -2.742570D-01
2.072800D+00          -3.155460D-01
8.307530D-01           5.710900D-02
3.091780D-01           5.636040D-01
1.001300D-01           3.846370D-01
D   1   1.00
1.001300D-01           1.000000D+00
F   2   1.00
3.224300D+00           4.222490D-01
7.758000D-01           7.714680D-01
****
$end


--------------------------------------------------------------
 ----------------------------------------------------------------
             Standard Nuclear Orientation (Angstroms)
    I     Atom           X                Y                Z
 ----------------------------------------------------------------
    1      C      -6.5211038000    -2.6273692000     1.1069871000
    2      C      -6.6090646000    -1.5477759000     2.1712627000
    3      N      -5.4612399000    -1.5714888000     2.9270095000
    4      O      -7.5358215000    -0.7546744000     2.3342848000
    5      C      -4.4428102000    -2.5103787000     2.3853883000
    6      C      -5.2666522000    -0.4771507000     3.8903683000
    7      O      -3.5151167000    -1.8397971000     1.5946749000
    8      C      -3.7121567000    -3.3296892000     3.5002965000
    9      H      -7.4735203000    -3.1697466000     1.0258978000
   10      H      -6.3384861000    -2.1266769000     0.1413418000
   11      C      -4.9184495000     0.8851789000     3.2473171000
   12      N      -4.1182310000     0.8536665000     2.1645924000
   13      C      -4.2690498000    -0.7760258000     5.0137915000
   14      C      -3.7073020000     2.0634430000     1.4699146000
   15      C      -2.6529031000     2.9008952000     2.1979981000
   16      O      -1.4382169000     2.1724504000     2.5017060000
   17      C      -0.5998818000     1.9189952000     1.4762345000
   18      C       0.5945925000     1.0964301000     1.9034282000
   19      O      -0.8078300000     2.3037011000     0.3383988000
   20      C       0.3111078000    -0.4251226000     1.7608133000
   21      C       0.0936768000    -0.7844713000     0.2505459000
   22      O      -0.8269956000    -0.7603656000     2.5065116000
   23      C       1.5255223000    -1.2378295000     2.2648427000
   24      C       1.3899665000    -2.7731058000     2.2185520000
   25      O       2.4159136000    -3.4492808000     2.3568539000
   26      O       0.2087544000    -3.2969115000     2.0565351000
   27      H      -4.5817460000     2.7207344000     1.3233513000
   28      H      -3.3328953000     1.7716520000     0.4805420000
   29      H      -3.0281439000     3.2189537000     3.1779438000
   30      H      -2.4076047000     3.7837039000     1.5884147000
   31      H       0.8378095000     1.3100483000     2.9538805000
   32      H       1.7104810000    -0.9644011000     3.3188550000
   33      H       2.4335404000    -0.9744314000     1.7010667000
   34      H      -6.2558559000    -0.3052592000     4.3366721000
   35      H      -3.2526547000    -0.9431021000     4.6271154000
   36      H      -4.5780775000    -1.6599579000     5.5862435000
   37      H      -4.2379049000     0.0928314000     5.6880066000
   38      O       0.8922334000    -0.4001057000    -0.6087617000
   39      O      -0.9405548000    -1.5404963000     0.0275323000
   40      H       1.4400704000     1.3679347000     1.2584204000
   41      O      -5.3376921000     1.9308853000     3.7631239000
   42      H      -3.8082168000    -0.0687972000     1.8197671000
   43      O      -4.3553071000    -3.9303593000     4.3640909000
   44      O      -2.4213407000    -3.3582348000     3.3745456000
   45      C      -5.3381844000    -3.4806149000     1.5572984000
   46      H      -4.7520023000    -3.9112395000     0.7350457000
   47      H      -5.6860967000    -4.2903886000     2.2146138000
   48      Fe     -1.6316915000    -2.3197436000     1.7926087000
   49      O      -1.7377027000    -4.2904383000     0.6235525000
   50      H      -0.8336377000    -4.4910222000     0.9481570000
   51      H      -2.2989175000    -4.9341515000     1.0879867000
 ----------------------------------------------------------------
 Nuclear Repulsion Energy =        4456.54038034 hartrees
 There are      133 alpha and      128 beta electrons
 Requested basis set is non-standard
 There are 258 shells and 572 basis functions

 Total QAlloc Memory Limit  30000 MB
 Mega-Array Size       188 MB
 MEM_STATIC part       192 MB

 -----------------------------------------------------------------------
                STARTING GEOMETRY OPTIMIZER USING LIBOPT3
                by Peter F. McLaughlin, Yu Zhang, Evgeny Epifanovsky
 -----------------------------------------------------------------------

              Initial Energy and Gradient Calculation
   -- Checking Topology for Ill-Behaving Coordinates --

 -------------------------------------------
   Coordinate       |  Removed | Additions 
 -------------------------------------------
	Bonds                     0          0
	Angles                    2          0
	Torsions                  4          4
	Co-Linear Type5s          0          4
	Co-Linear Type6s          0          4
 -------------------------------------------

 ** Ill-Behaving Topology Definitions (No action needed.) **

  Ill-Defined Angles Removed: 
   7  48  26,  39  48  44

  Ill-Defined Torsions Removed: 
   5   7  48  26,   8  44  48  39,  21  39  48  44,  24  26  48   7

     Done Checking Topology
 ----------------------------------------------------------------
             Standard Nuclear Orientation (Angstroms)
    I     Atom           X                Y                Z
 ----------------------------------------------------------------
    1      C      -6.5211038000    -2.6273692000     1.1069871000
    2      C      -6.6090646000    -1.5477759000     2.1712627000
    3      N      -5.4612399000    -1.5714888000     2.9270095000
    4      O      -7.5358215000    -0.7546744000     2.3342848000
    5      C      -4.4428102000    -2.5103787000     2.3853883000
    6      C      -5.2666522000    -0.4771507000     3.8903683000
    7      O      -3.5151167000    -1.8397971000     1.5946749000
    8      C      -3.7121567000    -3.3296892000     3.5002965000
    9      H      -7.4735203000    -3.1697466000     1.0258978000
   10      H      -6.3384861000    -2.1266769000     0.1413418000
   11      C      -4.9184495000     0.8851789000     3.2473171000
   12      N      -4.1182310000     0.8536665000     2.1645924000
   13      C      -4.2690498000    -0.7760258000     5.0137915000
   14      C      -3.7073020000     2.0634430000     1.4699146000
   15      C      -2.6529031000     2.9008952000     2.1979981000
   16      O      -1.4382169000     2.1724504000     2.5017060000
   17      C      -0.5998818000     1.9189952000     1.4762345000
   18      C       0.5945925000     1.0964301000     1.9034282000
   19      O      -0.8078300000     2.3037011000     0.3383988000
   20      C       0.3111078000    -0.4251226000     1.7608133000
   21      C       0.0936768000    -0.7844713000     0.2505459000
   22      O      -0.8269956000    -0.7603656000     2.5065116000
   23      C       1.5255223000    -1.2378295000     2.2648427000
   24      C       1.3899665000    -2.7731058000     2.2185520000
   25      O       2.4159136000    -3.4492808000     2.3568539000
   26      O       0.2087544000    -3.2969115000     2.0565351000
   27      H      -4.5817460000     2.7207344000     1.3233513000
   28      H      -3.3328953000     1.7716520000     0.4805420000
   29      H      -3.0281439000     3.2189537000     3.1779438000
   30      H      -2.4076047000     3.7837039000     1.5884147000
   31      H       0.8378095000     1.3100483000     2.9538805000
   32      H       1.7104810000    -0.9644011000     3.3188550000
   33      H       2.4335404000    -0.9744314000     1.7010667000
   34      H      -6.2558559000    -0.3052592000     4.3366721000
   35      H      -3.2526547000    -0.9431021000     4.6271154000
   36      H      -4.5780775000    -1.6599579000     5.5862435000
   37      H      -4.2379049000     0.0928314000     5.6880066000
   38      O       0.8922334000    -0.4001057000    -0.6087617000
   39      O      -0.9405548000    -1.5404963000     0.0275323000
   40      H       1.4400704000     1.3679347000     1.2584204000
   41      O      -5.3376921000     1.9308853000     3.7631239000
   42      H      -3.8082168000    -0.0687972000     1.8197671000
   43      O      -4.3553071000    -3.9303593000     4.3640909000
   44      O      -2.4213407000    -3.3582348000     3.3745456000
   45      C      -5.3381844000    -3.4806149000     1.5572984000
   46      H      -4.7520023000    -3.9112395000     0.7350457000
   47      H      -5.6860967000    -4.2903886000     2.2146138000
   48      Fe     -1.6316915000    -2.3197436000     1.7926087000
   49      O      -1.7377027000    -4.2904383000     0.6235525000
   50      H      -0.8336377000    -4.4910222000     0.9481570000
   51      H      -2.2989175000    -4.9341515000     1.0879867000
 ----------------------------------------------------------------
 Nuclear Repulsion Energy =        4456.54038034 hartrees
 There are      133 alpha and      128 beta electrons
 Using C-PCM dielectric factor f(eps) = (eps-1)/eps = 0.987243
 Static dielectric constant eps = 78.39
 No default van der Waals radius is available for Z = 26
	Found R = 2.4400 A in the $van_der_waals section
 Discretize the solute cavity surface with Lebedev spheres
	Using 110 Lebedev grid points for each H atom
	Using 194 Lebedev grid points for other atoms
	Atomic van der Waals radii (Bondi set) will be scaled by 1.20
 Using smooth SwiG surface discretization
 Remove points where switching function is < 1.0e-08
 Keep 3070 surface tesserae and discard 5228 interior tesserae
 Molecular Surface Area = 411.601 Angst**2

 Requested basis set is non-standard
 There are 258 shells and 572 basis functions
 A cutoff of  1.0D-12 yielded  29511 shell pairs
 There are    135393 function pairs (    151482 Cartesian)
 Smallest overlap matrix eigenvalue = 2.70E-04

 Scale SEOQF with 1.000000e-02/1.000000e-01/1.000000e-02

 Standard Electronic Orientation quadrupole field applied
 Nucleus-field energy     =     0.0000000962 hartrees
 ================ Generating on-the-fly SAD Guess ================
 Attempting to make child job directory: /scratch/cooksy_group/qchem682305//Frg1/
 Attempting to make child job directory: /scratch/cooksy_group/qchem682305//Frg2/
 Attempting to make child job directory: /scratch/cooksy_group/qchem682305//Frg3/
 Attempting to make child job directory: /scratch/cooksy_group/qchem682305//Frg4/
 Attempting to make child job directory: /scratch/cooksy_group/qchem682305//Frg5/
 Creating input file /scratch/cooksy_group/qchem682305/Frg1.input
 using default PutDataFrgm: nothing
 calling putenv with: QCSCRATCH=/scratch/cooksy_group/qchem682305/ 
 Spawning Job For Fragment 0
 Done Job For Fragment 0
 calling putenv with: QCSCRATCH=/scratch/cooksy_group 
 calling putenv with: QCTHREADS=16 
 Creating input file /scratch/cooksy_group/qchem682305/Frg2.input
 using default PutDataFrgm: nothing
 calling putenv with: QCSCRATCH=/scratch/cooksy_group/qchem682305/ 
 Spawning Job For Fragment 1
 Done Job For Fragment 1
 calling putenv with: QCSCRATCH=/scratch/cooksy_group 
 calling putenv with: QCTHREADS=16 
 Creating input file /scratch/cooksy_group/qchem682305/Frg3.input
 using default PutDataFrgm: nothing
 calling putenv with: QCSCRATCH=/scratch/cooksy_group/qchem682305/ 
 Spawning Job For Fragment 2
 Done Job For Fragment 2
 calling putenv with: QCSCRATCH=/scratch/cooksy_group 
 calling putenv with: QCTHREADS=16 
 Creating input file /scratch/cooksy_group/qchem682305/Frg4.input
 using default PutDataFrgm: nothing
 calling putenv with: QCSCRATCH=/scratch/cooksy_group/qchem682305/ 
 Spawning Job For Fragment 3
 Done Job For Fragment 3
 calling putenv with: QCSCRATCH=/scratch/cooksy_group 
 calling putenv with: QCTHREADS=16 
 Creating input file /scratch/cooksy_group/qchem682305/Frg5.input
 using default PutDataFrgm: nothing
 calling putenv with: QCSCRATCH=/scratch/cooksy_group/qchem682305/ 
 Spawning Job For Fragment 4
 Done Job For Fragment 4
 calling putenv with: QCSCRATCH=/scratch/cooksy_group 
 calling putenv with: QCTHREADS=16 
 Time for running child jobs:  CPU 0.03 s  wall 105.47 s
 ============= Method Specific SAD Guess Constructed =============
 Guess from on-the-fly superposition of atomic densities
 Warning: Energy on first SCF cycle will be non-variational

 -----------------------------------------------------------------------
  General SCF calculation program by
  Eric Jon Sundstrom, Paul Horn, Yuezhi Mao, Dmitri Zuev, Alec White,
  David Stuck, Shaama M.S., Shane Yost, Joonho Lee, David Small,
  Daniel Levine, Susi Lehtola, Hugh Burton, Evgeny Epifanovsky,
  Bang C. Huynh
 -----------------------------------------------------------------------
 Exchange:     0.2000 Hartree-Fock + 0.0800 Slater + 0.7200 B88
 Correlation:  0.1900 VWN1RPA + 0.8100 LYP
 Using SG-1 standard quadrature grid
 using 16 threads for integral computing
 -------------------------------------------------------
 OpenMP Integral computing Module                
 Release: version 1.0, May 2013, Q-Chem Inc. Pittsburgh 
 -------------------------------------------------------
 C-PCM solvent model [f = (eps-1)/eps], solve by matrix inversion
 A unrestricted SCF calculation will be
 performed using DIIS
 SCF converges when DIIS error is below 1.0e-08
 ---------------------------------------
  Cycle       Energy         DIIS error
 ---------------------------------------
    1   -2983.7445058704      1.81e-02  
    2   -2972.0981259644      2.57e-03  
    3   -2967.0312836828      7.52e-03  
    4   -2970.7852136269      4.00e-03  
    5   -2972.9516705504      6.44e-04  
    6   -2972.9902640511      4.14e-04  
    7   -2973.0120208623      1.46e-04  
    8   -2973.0142969854      8.74e-05  
    9   -2973.0151396300      3.72e-05  
   10   -2973.0152845565      2.05e-05  
   11   -2973.0153369385      9.01e-06  
   12   -2973.0153463943      3.41e-06  
   13   -2973.0153476615      1.73e-06  
   14   -2973.0153480890      5.43e-07  
   15   -2973.0153481596      3.63e-07  
   16   -2973.0153481794      1.52e-07  
   17   -2973.0153481831      6.82e-08  
   18   -2973.0153481839      4.24e-08  
   19   -2973.0153481844      1.56e-08  
   20   -2973.0153481844      6.09e-09  Convergence criterion met
 ---------------------------------------
 SCF time:   CPU 26917.24s  wall 1994.00s 
<S^2> =          8.757152705

************** Final PCM Free Energy Summary **************
 G_electrostatic  =      -0.26423962 hartree =    -165.81286608 kcal/mol
 G_cavitation     =       0.00000000 hartree =       0.00000000 kcal/mol
 G_dispersion     =       0.00000000 hartree =       0.00000000 kcal/mol
 G_repulsion      =       0.00000000 hartree =       0.00000000 kcal/mol
 --------------------------------------------------
 Non-electrostatic Free Energy =       0.00000000 hartree =       0.00000000 kcal/mol
 Total                         =      -0.26423962 hartree =    -165.81286608 kcal/mol
 --------------------------------------------------
 SCF Energy (H0 + V/2)                       =   -2973.01534818 
 Solute Internal Energy (H0)                 =   -2972.75110856 
 Total Free Energy (H0 + V/2 + non-elec)     =   -2973.01534818 hartree
                                             = -1865595.29752061 kcal/mol
***********************************************************

 SCF   energy = -2973.01534818
 Total energy = -2973.01534818
 
 --------------------------------------------------------------
 
                    Orbital Energies (a.u.)
 --------------------------------------------------------------
 
 Alpha MOs
 -- Occupied --
 -256.13777   -30.13552   -25.98894   -25.98744   -25.98548   -19.17900
  -19.16089   -19.12607   -19.11624   -19.10995   -19.10695   -19.10676
  -19.09953   -19.09952   -19.09578   -19.09500   -19.09137   -19.08397
  -14.35003   -14.33619   -10.31034   -10.27988   -10.27937   -10.27832
  -10.27441   -10.27404   -10.26288   -10.23609   -10.23267   -10.22545
  -10.21733   -10.18670   -10.18615   -10.18095   -10.17924   -10.17721
   -3.61784    -2.39451    -2.39147    -2.38847    -1.09844    -1.04875
   -1.04208    -1.03379    -1.03336    -1.02297    -1.02247    -1.01036
   -0.98459    -0.97095    -0.95825    -0.94953    -0.94467    -0.91501
   -0.90720    -0.80364    -0.77890    -0.75474    -0.74063    -0.71558
   -0.69265    -0.66405    -0.63704    -0.61133    -0.59860    -0.57782
   -0.55571    -0.55213    -0.54416    -0.53967    -0.52683    -0.50626
   -0.50402    -0.49177    -0.49113    -0.48416    -0.48005    -0.47858
   -0.46772    -0.45901    -0.45551    -0.45425    -0.44235    -0.44040
   -0.43686    -0.43357    -0.42829    -0.42540    -0.42402    -0.41922
   -0.41529    -0.41191    -0.40996    -0.40791    -0.40489    -0.40150
   -0.39879    -0.39508    -0.39083    -0.38857    -0.38254    -0.37922
   -0.37499    -0.37077    -0.36753    -0.36108    -0.36040    -0.35390
   -0.35172    -0.34703    -0.34385    -0.34297    -0.33390    -0.32778
   -0.30299    -0.29973    -0.29484    -0.28380    -0.27775    -0.27190
   -0.26986    -0.26808    -0.26391    -0.25837    -0.25479    -0.24855
   -0.24641    -0.24021    -0.23625    -0.23029    -0.22636    -0.21722
   -0.21139
 -- Virtual --
    0.00741     0.01971     0.02434     0.02886     0.03579     0.03788
    0.05183     0.06186     0.06402     0.07404     0.09479     0.10325
    0.10422     0.11041     0.11641     0.12012     0.12610     0.13278
    0.13515     0.14507     0.14625     0.15120     0.15675     0.16061
    0.16294     0.17336     0.17979     0.18244     0.18543     0.18926
    0.20035     0.20098     0.20522     0.21397     0.21643     0.22410
    0.23076     0.23584     0.24251     0.24692     0.25268     0.25969
    0.26335     0.27088     0.27965     0.28586     0.29071     0.29581
    0.30653     0.31196     0.32424     0.32719     0.33279     0.33846
    0.34665     0.35551     0.36557     0.37247     0.37339     0.38862
    0.39828     0.41300     0.41424     0.42345     0.43345     0.43964
    0.44964     0.45393     0.46037     0.46188     0.47504     0.47711
    0.48064     0.48379     0.49004     0.49986     0.50041     0.50191
    0.51113     0.52028     0.53584     0.53978     0.54738     0.55133
    0.55583     0.56458     0.56748     0.57268     0.57590     0.58153
    0.58395     0.59222     0.60154     0.60383     0.61081     0.61208
    0.61581     0.62303     0.62520     0.63053     0.63357     0.63474
    0.64281     0.64362     0.64618     0.64980     0.65443     0.65639
    0.65723     0.66262     0.66728     0.67461     0.67859     0.68393
    0.68972     0.69011     0.69917     0.70083     0.70263     0.70738
    0.72395     0.72819     0.73688     0.74167     0.74668     0.75017
    0.76693     0.78463     0.78548     0.78872     0.79388     0.79848
    0.80467     0.81193     0.82065     0.82850     0.84411     0.85773
    0.86421     0.86986     0.87878     0.88389     0.89159     0.90076
    0.91160     0.92079     0.93098     0.94237     0.94872     0.95693
    0.97346     0.99066     0.99952     1.00654     1.01844     1.02479
    1.03032     1.03994     1.04394     1.05231     1.05563     1.06419
    1.06756     1.07500     1.08566     1.09195     1.09621     1.10020
    1.10272     1.11042     1.11181     1.12294     1.12364     1.12746
    1.14684     1.15133     1.16128     1.16192     1.16665     1.17161
    1.18206     1.19020     1.19275     1.19503     1.19955     1.20458
    1.21855     1.22356     1.22719     1.23386     1.23968     1.24722
    1.25493     1.26693     1.26987     1.27365     1.27708     1.28514
    1.29170     1.30218     1.31019     1.32130     1.32935     1.34296
    1.34758     1.36130     1.36782     1.38137     1.38554     1.38820
    1.39324     1.40538     1.41096     1.42721     1.43341     1.43950
    1.45672     1.46680     1.47482     1.48548     1.49095     1.50401
    1.50729     1.51704     1.53324     1.53727     1.54131     1.54631
    1.55133     1.55846     1.56608     1.56801     1.57689     1.58570
    1.58934     1.59407     1.59770     1.60605     1.61572     1.62068
    1.63427     1.63615     1.64443     1.64870     1.65608     1.65787
    1.65990     1.66346     1.67161     1.68082     1.68333     1.69216
    1.69458     1.70454     1.70699     1.70885     1.71433     1.71857
    1.72157     1.72552     1.73376     1.74210     1.74615     1.75373
    1.75483     1.76578     1.77041     1.78203     1.78500     1.78786
    1.80270     1.80665     1.81052     1.81441     1.82194     1.82778
    1.83195     1.84280     1.85287     1.86152     1.86836     1.86977
    1.87477     1.87844     1.89664     1.89866     1.91109     1.91651
    1.92008     1.93020     1.94082     1.94100     1.96083     1.96544
    1.97470     1.98041     1.99142     1.99858     2.00112     2.01349
    2.01927     2.03871     2.04660     2.05535     2.06708     2.08128
    2.08414     2.08664     2.09207     2.09491     2.11002     2.11173
    2.13025     2.13930     2.14250     2.15451     2.16595     2.16973
    2.17990     2.18556     2.20241     2.21515     2.21866     2.22483
    2.24539     2.24733     2.26379     2.27854     2.28230     2.29972
    2.30283     2.30796     2.31841     2.33217     2.34529     2.35199
    2.36067     2.37024     2.38595     2.39799     2.40846     2.43123
    2.44222     2.45020     2.45697     2.45964     2.47256     2.48133
    2.48882     2.50075     2.51537     2.51962     2.53277     2.53386
    2.54538     2.54860     2.56619     2.58631     2.60521     2.62802
    2.63116     2.63576     2.64129     2.66126     2.66338     2.67689
    2.67944     2.68449     2.68690     2.70007     2.70829     2.71857
    2.72653     2.72966     2.73218     2.73720     2.74183     2.75158
    2.76449     2.76663     2.78758     2.79029     2.82070     2.83131
    2.87460     2.89115     2.90535     2.90987     2.92815     2.94124
    2.95188     2.96351     2.96426     2.97319     2.98439     2.99371
    2.99791     3.00177     3.02505     3.04318     3.05044     3.07223
    3.07504     3.10286     3.11864     3.12443     3.13085     3.16554
    3.17315     3.17789     3.19319     3.19973     3.21259     3.22259
    3.22829     3.25241     3.36298     3.37305     3.38189     3.38807
    3.39957     3.42594     3.43478     3.44231     3.44878     3.45935
    3.46942     3.48476     3.48964     3.49302     3.50236     3.51371
    3.53403     3.54121     3.56260     3.59816     3.60337     3.63518
    3.79310
 
 Beta MOs
 -- Occupied --
 -256.13595   -30.04266   -25.91093   -25.90987   -25.90893   -19.17900
  -19.15939   -19.12606   -19.11310   -19.10671   -19.10659   -19.10415
  -19.09952   -19.09451   -19.09434   -19.09078   -19.08804   -19.08359
  -14.34986   -14.33615   -10.31035   -10.27985   -10.27939   -10.27831
  -10.27440   -10.27397   -10.26282   -10.23609   -10.23265   -10.22546
  -10.21733   -10.18656   -10.18615   -10.18084   -10.17924   -10.17704
   -3.40163    -2.16547    -2.16371    -2.16205    -1.09841    -1.04558
   -1.03842    -1.03286    -1.03088    -1.02244    -1.02014    -1.01033
   -0.97809    -0.95997    -0.95390    -0.94257    -0.93948    -0.91169
   -0.90637    -0.80321    -0.77699    -0.75335    -0.74034    -0.71512
   -0.69079    -0.66383    -0.63678    -0.60897    -0.59777    -0.57742
   -0.55424    -0.54872    -0.54314    -0.53660    -0.52370    -0.50058
   -0.48992    -0.48775    -0.48458    -0.47913    -0.47566    -0.47390
   -0.45922    -0.45645    -0.45114    -0.44542    -0.43725    -0.43538
   -0.42699    -0.42533    -0.42087    -0.41930    -0.41759    -0.41200
   -0.40905    -0.40641    -0.40531    -0.39808    -0.39022    -0.38902
   -0.38544    -0.37897    -0.37312    -0.36980    -0.36858    -0.36214
   -0.36037    -0.35431    -0.35164    -0.34410    -0.34250    -0.33918
   -0.33061    -0.30607    -0.30280    -0.29372    -0.29109    -0.28190
   -0.27899    -0.27218    -0.27104    -0.26822    -0.26653    -0.25695
   -0.25111    -0.24987    -0.24599    -0.24277    -0.23169    -0.23013
   -0.22710    -0.21778
 -- Virtual --
   -0.07753    -0.07479    -0.06864    -0.03207    -0.02503     0.00782
    0.02039     0.02552     0.03024     0.03774     0.04049     0.05344
    0.06288     0.06496     0.07465     0.09506     0.10346     0.10499
    0.11130     0.11710     0.12070     0.12638     0.13316     0.13542
    0.14558     0.14652     0.15172     0.15816     0.16097     0.16345
    0.17406     0.18184     0.18406     0.18618     0.19027     0.20184
    0.20256     0.20950     0.21512     0.21753     0.23260     0.23431
    0.23841     0.24480     0.25303     0.25486     0.26240     0.26653
    0.27388     0.28108     0.28864     0.29477     0.29673     0.31413
    0.31803     0.32735     0.33062     0.33522     0.34124     0.35317
    0.36111     0.36893     0.37673     0.37984     0.39265     0.40130
    0.41541     0.41948     0.43154     0.43541     0.44081     0.45073
    0.45634     0.46226     0.46447     0.47714     0.47906     0.48202
    0.48605     0.49165     0.50106     0.50260     0.50334     0.51325
    0.52182     0.53743     0.54047     0.54796     0.55378     0.55707
    0.56611     0.56873     0.57392     0.57827     0.58221     0.58558
    0.59283     0.60310     0.60537     0.61153     0.61287     0.61686
    0.62440     0.62587     0.63182     0.63510     0.63612     0.64397
    0.64491     0.64699     0.65043     0.65503     0.65756     0.65848
    0.66342     0.66876     0.67528     0.68022     0.68464     0.69056
    0.69125     0.69976     0.70208     0.70392     0.70799     0.72524
    0.72987     0.73801     0.74338     0.74937     0.75282     0.76848
    0.78647     0.78762     0.79331     0.79726     0.80276     0.80920
    0.81617     0.82574     0.83815     0.85783     0.86308     0.87301
    0.87916     0.87999     0.88994     0.89387     0.90319     0.91552
    0.92285     0.93631     0.94342     0.95061     0.95914     0.97614
    0.99227     1.00237     1.00784     1.02254     1.02614     1.03405
    1.04357     1.04563     1.05422     1.05774     1.06654     1.07081
    1.07712     1.08767     1.09431     1.09899     1.10176     1.10453
    1.11370     1.11689     1.12564     1.12668     1.12923     1.14911
    1.15304     1.16270     1.16470     1.16849     1.17443     1.18491
    1.19227     1.19523     1.20152     1.20371     1.20749     1.22146
    1.22896     1.23179     1.23763     1.24090     1.25542     1.26139
    1.26935     1.27587     1.27708     1.28443     1.28970     1.29934
    1.30972     1.31979     1.33080     1.33584     1.34549     1.35025
    1.36683     1.36954     1.38430     1.38956     1.39569     1.40484
    1.41078     1.41938     1.43759     1.44101     1.44518     1.46353
    1.46899     1.48436     1.49617     1.50584     1.50865     1.51034
    1.52503     1.53375     1.53956     1.54576     1.54946     1.55526
    1.56187     1.57033     1.57206     1.58039     1.59705     1.59842
    1.60164     1.61065     1.61709     1.62395     1.62994     1.63570
    1.63994     1.64585     1.65096     1.65788     1.66117     1.66455
    1.67040     1.67893     1.68335     1.68739     1.69640     1.69970
    1.70682     1.70920     1.71025     1.71531     1.72147     1.72433
    1.72877     1.73643     1.74494     1.74952     1.75704     1.75933
    1.77031     1.77445     1.78537     1.78632     1.79379     1.80494
    1.80998     1.81676     1.81805     1.82412     1.82910     1.83394
    1.84482     1.85471     1.86447     1.87239     1.87601     1.87827
    1.88526     1.89870     1.90541     1.91320     1.92219     1.92716
    1.93685     1.94381     1.94494     1.96227     1.96908     1.97949
    1.98460     1.99381     2.00354     2.00925     2.02015     2.02829
    2.04418     2.04999     2.05664     2.06852     2.08366     2.08788
    2.08906     2.09520     2.10027     2.11155     2.11309     2.13291
    2.14066     2.14674     2.15852     2.16748     2.17188     2.18180
    2.18869     2.20794     2.21713     2.22157     2.23041     2.24643
    2.24850     2.26615     2.28330     2.28378     2.30211     2.30552
    2.30956     2.32102     2.33469     2.34947     2.35722     2.36311
    2.37490     2.38810     2.39937     2.41093     2.43319     2.44289
    2.45411     2.45831     2.46086     2.47411     2.48312     2.49559
    2.50270     2.51777     2.52667     2.53707     2.53848     2.54885
    2.55203     2.56811     2.58878     2.60848     2.63400     2.63694
    2.63900     2.64527     2.66316     2.66525     2.68115     2.68535
    2.69103     2.69431     2.71709     2.71893     2.72049     2.73008
    2.73087     2.73566     2.74221     2.75096     2.76861     2.76981
    2.77934     2.79189     2.80534     2.82703     2.83460     2.89101
    2.90273     2.90727     2.91547     2.92890     2.94897     2.95865
    2.96990     2.97783     2.98158     2.99880     3.00411     3.01547
    3.04342     3.05145     3.08339     3.10191     3.11446     3.11792
    3.12940     3.15251     3.15564     3.16652     3.17534     3.18122
    3.18887     3.20209     3.21217     3.23297     3.24395     3.26327
    3.28862     3.37358     3.38115     3.38930     3.40205     3.40924
    3.43391     3.44114     3.44643     3.46115     3.46238     3.48023
    3.48941     3.49105     3.50579     3.50941     3.53289     3.55766
    3.56560     3.60065     3.60492     3.63820     3.72259     3.79524
 --------------------------------------------------------------
 
          Ground-State Mulliken Net Atomic Charges

     Atom                 Charge (a.u.)    Spin (a.u.)
  --------------------------------------------------------
      1 C                     0.006704       0.000136
      2 C                     0.141558       0.000403
      3 N                    -0.225416       0.005404
      4 O                    -0.347633       0.001708
      5 C                     0.076618       0.005773
      6 C                     0.035840      -0.000223
      7 O                    -0.519056       0.158312
      8 C                     0.210018       0.002778
      9 H                     0.031746      -0.000044
     10 H                     0.051500       0.000208
     11 C                     0.125692      -0.000017
     12 N                    -0.138113       0.001111
     13 C                     0.019088      -0.000224
     14 C                     0.071402       0.000058
     15 C                     0.165527       0.000079
     16 O                    -0.265622       0.000129
     17 C                     0.184899      -0.000149
     18 C                     0.150100       0.005629
     19 O                    -0.306281       0.000518
     20 C                    -0.125183       0.001982
     21 C                     0.234999       0.005540
     22 O                    -0.475629       0.256531
     23 C                     0.093032       0.006641
     24 C                     0.146480       0.001572
     25 O                    -0.374996       0.012644
     26 O                    -0.417792       0.075121
     27 H                     0.026808       0.000007
     28 H                     0.030550       0.000026
     29 H                     0.025704      -0.000005
     30 H                     0.029787      -0.000017
     31 H                     0.020405       0.000250
     32 H                     0.034790      -0.000028
     33 H                     0.011936       0.001503
     34 H                     0.004653       0.000245
     35 H                     0.070603       0.000584
     36 H                     0.029896      -0.000034
     37 H                     0.026110      -0.000046
     38 O                    -0.361132       0.021478
     39 O                    -0.390457       0.096469
     40 H                     0.017045       0.002058
     41 O                    -0.364284       0.000133
     42 H                     0.153521       0.001489
     43 O                    -0.353984       0.017362
     44 O                    -0.384253       0.087476
     45 C                     0.080515       0.004865
     46 H                     0.031780      -0.000362
     47 H                     0.009479       0.000557
     48 Fe                    0.502051       4.184811
     49 O                    -0.200372       0.037265
     50 H                     0.197636      -0.000328
     51 H                     0.201731       0.002619
  --------------------------------------------------------
  Sum of atomic charges =    -2.000000
  Sum of spin   charges =     5.000000

 -----------------------------------------------------------------
                    Cartesian Multipole Moments
 -----------------------------------------------------------------
    Charge (ESU x 10^10)
                -9.6064
    Dipole Moment (Debye)
         X      16.9740      Y      13.3255      Z     -19.5022
       Tot      29.0864
    Quadrupole Moments (Debye-Ang)
        XX    -331.9575     XY       8.5055     YY    -248.4462
        XZ      71.6347     YZ      45.9809     ZZ    -279.4718
    Octopole Moments (Debye-Ang^2)
       XXX    2262.0259    XXY     252.8554    XYY     504.2542
       YYY     742.9462    XXZ    -885.6031    XYZ     -31.4143
       YYZ    -636.1547    XZZ     770.4109    YZZ     393.1082
       ZZZ   -1556.9604
    Hexadecapole Moments (Debye-Ang^3)
      XXXX  -21568.9647   XXXY   -1258.5400   XXYY   -4159.9218
      XYYY   -1455.5447   YYYY   -6673.8559   XXXZ    6522.2845
      XXYZ     777.9986   XYYZ    1751.5627   YYYZ    2119.9322
      XXZZ   -5435.7182   XYZZ    -839.8089   YYZZ   -3308.7957
      XZZZ    4950.2471   YZZZ    2131.8864   ZZZZ   -8507.2165
 -----------------------------------------------------------------
 Calculating analytic gradient of the SCF energy
 Gradient of SCF Energy
            1           2           3           4           5           6
    1   0.0072854  -0.0731221  -0.0222726   0.0998689   0.0019280  -0.0088429
    2   0.0052755   0.0604660  -0.0040700  -0.0757686  -0.0034302   0.0059242
    3  -0.0014569   0.0143493  -0.0146206  -0.0124060  -0.0201746   0.0314825
            7           8           9          10          11          12
    1   0.0078738  -0.0177868   0.0321140  -0.0085328  -0.0199859   0.0006593
    2  -0.0141273  -0.0679735   0.0198641  -0.0180951   0.0890529  -0.0396863
    3   0.0116144   0.0940880   0.0022820   0.0365648   0.0144624   0.0065343
           13          14          15          16          17          18
    1   0.0129037  -0.0060473  -0.0138048   0.0070544  -0.0054481   0.0041905
    2  -0.0078659   0.0101428   0.0205723  -0.0024232   0.0410935   0.0053984
    3   0.0016035  -0.0131275   0.0035205  -0.0456685  -0.0677020  -0.0017052
           19          20          21          22          23          24
    1   0.0163424   0.0263520   0.0496217   0.0037391   0.0241881   0.0663482
    2  -0.0513835   0.0292142   0.0192507  -0.0183387  -0.0003893  -0.0920732
    3   0.1193850   0.0181661  -0.1321604  -0.0165617   0.0106810   0.0084841
           25          26          27          28          29          30
    1  -0.1239239   0.0597429   0.0330702  -0.0133307   0.0140440  -0.0061970
    2   0.0871176   0.0475187  -0.0254553   0.0138499  -0.0156959  -0.0333891
    3  -0.0175218   0.0121138   0.0066732   0.0444810  -0.0397947   0.0219908
           31          32          33          34          35          36
    1  -0.0121717  -0.0076821  -0.0408617   0.0413941  -0.0506746   0.0146384
    2  -0.0086985  -0.0125159  -0.0121796  -0.0055372   0.0091455   0.0359304
    3  -0.0429485  -0.0485843   0.0246875  -0.0229742   0.0199216  -0.0263908
           37          38          39          40          41          42
    1  -0.0014380  -0.0995687   0.0543209  -0.0378070   0.0449179  -0.0256862
    2  -0.0341773  -0.0482659   0.0368988  -0.0133302  -0.1039704   0.0536796
    3  -0.0277352   0.1179899   0.0332698   0.0249281  -0.0503283   0.0175842
           43          44          45          46          47          48
    1   0.0681868  -0.0604337  -0.0116578  -0.0215654   0.0134174  -0.0163015
    2   0.0719318   0.0156479  -0.0145541   0.0152210   0.0296556   0.0027428
    3  -0.0967546  -0.0076175  -0.0058854   0.0323964  -0.0203317  -0.0026288
           49          50          51
    1   0.0225417  -0.0547956   0.0331950
    2  -0.0325892   0.0002150   0.0301743
    3   0.0559398  -0.0218504  -0.0282646
 Max gradient component =       1.322E-01
 RMS gradient           =       4.144E-02
 Computing fast CPCM-SWIG gradient
 Updating gradient with PCM contributions...
 -- total gradient after adding PCM contribution --
---------------------------------------------------
  Atom         X              Y              Z     
---------------------------------------------------
   1       0.000007       0.000001      -0.000013
   2       0.000010      -0.000017       0.000012
   3       0.000021      -0.000058      -0.000017
   4      -0.000007       0.000006      -0.000004
   5      -0.000016       0.000003       0.000010
   6      -0.000000       0.000039       0.000061
   7      -0.000023      -0.000012      -0.000064
   8       0.000008       0.000008      -0.000013
   9       0.000002       0.000004      -0.000007
  10      -0.000002       0.000003      -0.000009
  11       0.000011      -0.000044      -0.000028
  12       0.000004      -0.000007      -0.000017
  13      -0.000010      -0.000002      -0.000019
  14       0.000001       0.000024       0.000020
  15       0.000012      -0.000025       0.000045
  16      -0.000003       0.000030       0.000005
  17       0.000015       0.000005      -0.000001
  18      -0.000002      -0.000011       0.000010
  19      -0.000002       0.000004       0.000019
  20      -0.000005       0.000017       0.000011
  21      -0.000010      -0.000007       0.000006
  22       0.000013      -0.000027      -0.000034
  23      -0.000002      -0.000003      -0.000000
  24      -0.000026      -0.000002      -0.000010
  25       0.000008      -0.000002       0.000003
  26       0.000025       0.000003      -0.000010
  27      -0.000005       0.000004      -0.000011
  28      -0.000015       0.000003       0.000004
  29       0.000001      -0.000006       0.000008
  30       0.000003      -0.000003       0.000006
  31       0.000002       0.000003       0.000006
  32       0.000003      -0.000000       0.000002
  33       0.000001       0.000005       0.000002
  34      -0.000003       0.000007      -0.000009
  35      -0.000005      -0.000012       0.000003
  36       0.000000      -0.000004      -0.000009
  37      -0.000008      -0.000009      -0.000002
  38       0.000009       0.000019      -0.000004
  39       0.000014       0.000012      -0.000001
  40       0.000001       0.000003       0.000010
  41      -0.000026       0.000019       0.000026
  42       0.000002       0.000003       0.000007
  43      -0.000005      -0.000007      -0.000007
  44      -0.000016      -0.000014      -0.000027
  45       0.000001      -0.000011      -0.000011
  46       0.000004       0.000008      -0.000009
  47      -0.000001      -0.000001      -0.000016
  48      -0.000000       0.000010       0.000101
  49       0.000011       0.000033      -0.000038
  50       0.000006      -0.000010      -0.000010
  51      -0.000004       0.000016       0.000021
---------------------------------------------------
 Number of fixed atoms: 0
 Gradient time:  CPU 3574.18 s  wall 320.58 s

 *****************************************************
             Starting BFGS Algorithm
 *****************************************************
            LIBOPT3 RUN PARAMETERS

  Geometry Optimization Coordinates :
	Delocalized Natural Internal Coordinates

  Step Length Selection Method :
	Eigenvector Following Algorithm

  Step Length Limiter :
	Root-Mean-Square of Gradient

  Convergence Criteria :
	Max Gradient Component    	3.00000000e-04
	Max Displacement Component	1.20000000e-03
	Absolute Energy Difference	1.00000000e-06

  Initial Hessian :
	Approximate Hessian - Model Internal Coordinate

  Type of Verification :
	Verify with final updated Hessian
 *****************************************************

	OPTIMIZATION CYCLE:	1

 Scaling Magnitude of Eigenvalues
 	Minimum: -25.00000000	 Maximum: 25.00000000
 147 Hessian Eigenvalues to form next step
   0.00200000   0.00414751   0.00491966   0.00496336   0.00534906
   0.00571743   0.00651357   0.00705809   0.00753907   0.00821335
   0.00835617   0.00905583   0.00928098   0.01021513   0.01033994
   0.01105967   0.01145576   0.01338059   0.01381310   0.01511699
   0.01628466   0.01782793   0.02059721   0.02698505   0.03094461
   0.03490948   0.03658840   0.03724681   0.03918821   0.03936353
   0.04293199   0.04526189   0.04792904   0.05076344   0.05286805
   0.05356649   0.05379339   0.05469803   0.05535807   0.05573783
   0.05670146   0.05831047   0.05905174   0.06309961   0.06846446
   0.07006242   0.07246119   0.07512723   0.07792750   0.07834581
   0.08159353   0.08526564   0.08687632   0.09048288   0.09354443
   0.09735933   0.09746447   0.09916204   0.10073653   0.10592667
   0.10836495   0.11053383   0.11434678   0.11662652   0.12066200
   0.12959152   0.13266425   0.13527038   0.13970130   0.14244844
   0.14760378   0.15222700   0.15998570   0.16000000   0.16000000
   0.16000000   0.16000000   0.16000000   0.16586720   0.16995833
   0.18275943   0.18632249   0.18984212   0.19244969   0.20082603
   0.20314025   0.21300378   0.21497964   0.22414143   0.23111830
   0.23285741   0.24595034   0.24954499   0.24956675   0.24972953
   0.24979292   0.24996846   0.24998081   0.25430692   0.25804158
   0.26076041   0.26632243   0.27163435   0.27678362   0.27809525
   0.28513454   0.29084477   0.29251677   0.29383332   0.30775097
   0.32186708   0.33189609   0.33275675   0.33357281   0.33588265
   0.33595896   0.33657406   0.33659567   0.33740510   0.33770911
   0.33790677   0.33820417   0.33927516   0.33956210   0.33958620
   0.33976702   0.34074808   0.35327374   0.37168072   0.37921920
   0.40010370   0.41817007   0.42409693   0.47634080   0.51134546
   0.52945022   0.53491811   0.55472737   0.58947120   0.61324603
   0.63388710   0.87404961   0.88434936   0.89261686   0.89798208
   0.90542921   0.95836816

 Minimum Search taking a RFO step
 Searching for Lambda that minimizes along all modes
	Value of Lambda   -0.00000032
	Norm  of Stepsize  0.00459531
	RMS   of Stepsize  0.00037901

	Performing Iterative Coordinate Back-Transformation

	  Starting from Previous Position

	  iter:	0	rms: 1.0867786905e-03	maxdev: 3.2332565343e-03
	  iter:	1	rms: 4.4249582502e-07	maxdev: 1.8863338397e-06	 Success!

	Finished Iterative Coordinate Back-Transformation
 ----------------------------------------------------------------
             Standard Nuclear Orientation (Angstroms)
    I     Atom           X                Y                Z
 ----------------------------------------------------------------
    1      C      -6.5209164938    -2.6262473480     1.1066072135
    2      C      -6.6085869253    -1.5467069296     2.1709647616
    3      N      -5.4609725954    -1.5711995039     2.9270163162
    4      O      -7.5350670787    -0.7532990566     2.3340232253
    5      C      -4.4427800193    -2.5102833141     2.3852905437
    6      C      -5.2659974837    -0.4774484724     3.8908403191
    7      O      -3.5149714098    -1.8397371788     1.5947203601
    8      C      -3.7122598061    -3.3298701765     3.5001102875
    9      H      -7.4735682224    -3.1681724313     1.0252357314
   10      H      -6.3378173247    -2.1255464241     0.1410593343
   11      C      -4.9175651947     0.8850379370     3.2482485465
   12      N      -4.1183888387     0.8534353207     2.1647675515
   13      C      -4.2681931119    -0.7771152513     5.0139370463
   14      C      -3.7080149584     2.0630920050     1.4695778893
   15      C      -2.6535061235     2.9009449951     2.1969622445
   16      O      -1.4388970723     2.1724755732     2.5009839523
   17      C      -0.6004288608     1.9187555079     1.4756968980
   18      C       0.5941345032     1.0965570684     1.9033617197
   19      O      -0.8081404570     2.3032371386     0.3377370114
   20      C       0.3109593261    -0.4250770629     1.7609907172
   21      C       0.0938533929    -0.7846965796     0.2507270473
   22      O      -0.8272316666    -0.7602820574     2.5065702451
   23      C       1.5253301382    -1.2375799131     2.2654554627
   24      C       1.3899496024    -2.7728742289     2.2191256370
   25      O       2.4159454028    -3.4489575921     2.3574689208
   26      O       0.2087927386    -3.2967788990     2.0569126244
   27      H      -4.5826452098     2.7202073134     1.3234232964
   28      H      -3.3339831291     1.7711665190     0.4800974917
   29      H      -3.0286232213     3.2194885647     3.1768050984
   30      H      -2.4082732691     3.7834760881     1.5869510894
   31      H       0.8370104844     1.3104119144     2.9538462787
   32      H       1.7098487492    -0.9641285861     3.3195399367
   33      H       2.4335179785    -0.9740857875     1.7020047686
   34      H      -6.2550642984    -0.3056230634     4.3374718701
   35      H      -3.2519061362    -0.9440917868     4.6269209200
   36      H      -4.5772262116    -1.6613355023     5.5859649860
   37      H      -4.2367356989     0.0913440433     5.6886540439
   38      O       0.8926933003    -0.4006531385    -0.6084500979
   39      O      -0.9403825504    -1.5406856587     0.0275927786
   40      H       1.4397183066     1.3681043879     1.2585104753
   41      O      -5.3359801361     1.9307601955     3.7646417475
   42      H      -3.8089828961    -0.0690888984     1.8195437305
   43      O      -4.3554803376    -3.9305083366     4.3638708379
   44      O      -2.4214022862    -3.3581678059     3.3746369523
   45      C      -5.3384847734    -3.4800987862     1.5570959780
   46      H      -4.7524163858    -3.9110556136     0.7349334808
   47      H      -5.6868716959    -4.2896770856     2.2144066630
   48      Fe     -1.6316728916    -2.3198007446     1.7926012469
   49      O      -1.7374190975    -4.2907974231     0.6237031084
   50      H      -0.8334872932    -4.4912926527     0.9487162582
   51      H      -2.2988030615    -4.9346311826     1.0877457539
 ----------------------------------------------------------------
 Nuclear Repulsion Energy =        4456.65190063 hartrees
 There are      133 alpha and      128 beta electrons
 No default van der Waals radius is available for Z = 26
	Found R = 2.4400 A in the $van_der_waals section
 Discretize the solute cavity surface with Lebedev spheres
	Using 110 Lebedev grid points for each H atom
	Using 194 Lebedev grid points for other atoms
	Atomic van der Waals radii (Bondi set) will be scaled by 1.20
 Using smooth SwiG surface discretization
 Remove points where switching function is < 1.0e-08
 Keep 3070 surface tesserae and discard 5228 interior tesserae
 Molecular Surface Area = 411.593 Angst**2

 Applying Cartesian multipole field
    Component          Value
    ---------          -----
     (2,0,0)        1.00000E-12
     (0,2,0)        2.00000E-11
     (0,0,2)       -3.00000E-12
 Nucleus-field energy     = 9.6227883677e-08 hartrees
 Read the previous MOs as SCF guess

 -----------------------------------------------------------------------
  General SCF calculation program by
  Eric Jon Sundstrom, Paul Horn, Yuezhi Mao, Dmitri Zuev, Alec White,
  David Stuck, Shaama M.S., Shane Yost, Joonho Lee, David Small,
  Daniel Levine, Susi Lehtola, Hugh Burton, Evgeny Epifanovsky,
  Bang C. Huynh
 -----------------------------------------------------------------------
 Requested basis set is non-standard
 There are 258 shells and 572 basis functions
 Exchange:     0.2000 Hartree-Fock + 0.0800 Slater + 0.7200 B88
 Correlation:  0.1900 VWN1RPA + 0.8100 LYP
 Using SG-1 standard quadrature grid
 A cutoff of  1.0D-12 yielded  29512 shell pairs
 There are    135394 function pairs (    151483 Cartesian)
 Smallest overlap matrix eigenvalue = 2.70E-04
 A unrestricted SCF calculation will be
 performed using DIIS
 SCF converges when DIIS error is below 1.0e-08
 ---------------------------------------
  Cycle       Energy         DIIS error
 ---------------------------------------
    1   -2973.0154682436      5.36e-06  
    2   -2973.0153482968      3.71e-07  
    3   -2973.0153483076      4.28e-07  
    4   -2973.0153483270      1.87e-07  
    5   -2973.0153483301      1.00e-07  
    6   -2973.0153483309      5.58e-08  
    7   -2973.0153483312      1.19e-08  
    8   -2973.0153483312      4.12e-09  Convergence criterion met
 ---------------------------------------
 SCF time:   CPU 10939.27s  wall 844.00s 
<S^2> =          8.757152778

************** Final PCM Free Energy Summary **************
 G_electrostatic  =      -0.26424672 hartree =    -165.81732124 kcal/mol
 G_cavitation     =       0.00000000 hartree =       0.00000000 kcal/mol
 G_dispersion     =       0.00000000 hartree =       0.00000000 kcal/mol
 G_repulsion      =       0.00000000 hartree =       0.00000000 kcal/mol
 --------------------------------------------------
 Non-electrostatic Free Energy =       0.00000000 hartree =       0.00000000 kcal/mol
 Total                         =      -0.26424672 hartree =    -165.81732124 kcal/mol
 --------------------------------------------------
 SCF Energy (H0 + V/2)                       =   -2973.01534833 
 Solute Internal Energy (H0)                 =   -2972.75110161 
 Total Free Energy (H0 + V/2 + non-elec)     =   -2973.01534833 hartree
                                             = -1865595.29761271 kcal/mol
***********************************************************

 SCF   energy = -2973.01534833
 Total energy = -2973.01534833
 
 --------------------------------------------------------------
 
                    Orbital Energies (a.u.)
 --------------------------------------------------------------
 
 Alpha MOs
 -- Occupied --
 -256.13776   -30.13552   -25.98894   -25.98743   -25.98548   -19.17900
  -19.16088   -19.12607   -19.11623   -19.10996   -19.10695   -19.10677
  -19.09954   -19.09952   -19.09577   -19.09500   -19.09138   -19.08397
  -14.35002   -14.33618   -10.31034   -10.27988   -10.27938   -10.27832
  -10.27440   -10.27404   -10.26287   -10.23608   -10.23266   -10.22545
  -10.21733   -10.18670   -10.18615   -10.18095   -10.17923   -10.17721
   -3.61783    -2.39451    -2.39146    -2.38847    -1.09843    -1.04875
   -1.04209    -1.03379    -1.03336    -1.02296    -1.02247    -1.01036
   -0.98461    -0.97095    -0.95825    -0.94954    -0.94467    -0.91503
   -0.90720    -0.80364    -0.77890    -0.75474    -0.74061    -0.71558
   -0.69265    -0.66404    -0.63703    -0.61132    -0.59860    -0.57782
   -0.55571    -0.55212    -0.54416    -0.53966    -0.52683    -0.50626
   -0.50402    -0.49178    -0.49112    -0.48416    -0.48005    -0.47859
   -0.46771    -0.45901    -0.45551    -0.45424    -0.44235    -0.44039
   -0.43686    -0.43357    -0.42829    -0.42540    -0.42401    -0.41923
   -0.41529    -0.41190    -0.40997    -0.40791    -0.40489    -0.40149
   -0.39878    -0.39508    -0.39083    -0.38858    -0.38254    -0.37922
   -0.37499    -0.37077    -0.36753    -0.36108    -0.36041    -0.35390
   -0.35172    -0.34703    -0.34383    -0.34297    -0.33389    -0.32778
   -0.30298    -0.29974    -0.29484    -0.28380    -0.27775    -0.27190
   -0.26985    -0.26808    -0.26391    -0.25837    -0.25479    -0.24855
   -0.24640    -0.24021    -0.23625    -0.23029    -0.22636    -0.21722
   -0.21139
 -- Virtual --
    0.00742     0.01971     0.02433     0.02887     0.03580     0.03788
    0.05183     0.06186     0.06403     0.07405     0.09480     0.10326
    0.10425     0.11041     0.11641     0.12013     0.12611     0.13277
    0.13514     0.14508     0.14624     0.15120     0.15675     0.16063
    0.16295     0.17336     0.17981     0.18244     0.18543     0.18925
    0.20036     0.20099     0.20523     0.21398     0.21643     0.22408
    0.23076     0.23585     0.24252     0.24691     0.25270     0.25970
    0.26336     0.27089     0.27966     0.28586     0.29070     0.29579
    0.30652     0.31196     0.32424     0.32719     0.33280     0.33846
    0.34666     0.35554     0.36559     0.37246     0.37339     0.38861
    0.39829     0.41305     0.41425     0.42349     0.43344     0.43963
    0.44963     0.45394     0.46037     0.46187     0.47505     0.47712
    0.48065     0.48379     0.49002     0.49985     0.50042     0.50191
    0.51116     0.52028     0.53585     0.53980     0.54738     0.55133
    0.55585     0.56460     0.56748     0.57270     0.57591     0.58155
    0.58395     0.59222     0.60153     0.60384     0.61082     0.61209
    0.61581     0.62306     0.62520     0.63053     0.63357     0.63474
    0.64281     0.64363     0.64619     0.64980     0.65442     0.65640
    0.65722     0.66261     0.66727     0.67462     0.67861     0.68393
    0.68974     0.69012     0.69917     0.70081     0.70263     0.70739
    0.72396     0.72819     0.73689     0.74169     0.74667     0.75017
    0.76695     0.78462     0.78552     0.78874     0.79392     0.79847
    0.80471     0.81194     0.82065     0.82850     0.84411     0.85779
    0.86422     0.86986     0.87878     0.88388     0.89159     0.90075
    0.91158     0.92083     0.93098     0.94235     0.94871     0.95699
    0.97345     0.99070     0.99952     1.00656     1.01847     1.02481
    1.03031     1.03996     1.04395     1.05231     1.05563     1.06419
    1.06754     1.07497     1.08565     1.09199     1.09622     1.10019
    1.10274     1.11041     1.11180     1.12295     1.12365     1.12746
    1.14686     1.15132     1.16136     1.16196     1.16667     1.17162
    1.18205     1.19022     1.19279     1.19501     1.19956     1.20458
    1.21864     1.22357     1.22721     1.23387     1.23970     1.24719
    1.25496     1.26696     1.26989     1.27362     1.27709     1.28515
    1.29172     1.30221     1.31017     1.32133     1.32943     1.34299
    1.34756     1.36127     1.36784     1.38137     1.38557     1.38820
    1.39326     1.40542     1.41095     1.42723     1.43340     1.43952
    1.45677     1.46682     1.47483     1.48553     1.49095     1.50403
    1.50727     1.51703     1.53325     1.53727     1.54130     1.54631
    1.55134     1.55851     1.56608     1.56800     1.57689     1.58569
    1.58934     1.59405     1.59771     1.60605     1.61570     1.62072
    1.63428     1.63619     1.64446     1.64869     1.65610     1.65787
    1.65990     1.66347     1.67163     1.68084     1.68333     1.69217
    1.69458     1.70456     1.70699     1.70885     1.71433     1.71858
    1.72157     1.72554     1.73375     1.74211     1.74620     1.75371
    1.75481     1.76579     1.77045     1.78206     1.78500     1.78785
    1.80276     1.80664     1.81057     1.81443     1.82197     1.82776
    1.83195     1.84282     1.85294     1.86149     1.86841     1.86982
    1.87479     1.87847     1.89666     1.89862     1.91110     1.91649
    1.92006     1.93020     1.94082     1.94107     1.96084     1.96547
    1.97470     1.98046     1.99145     1.99855     2.00113     2.01350
    2.01924     2.03873     2.04661     2.05536     2.06711     2.08126
    2.08412     2.08664     2.09203     2.09490     2.11000     2.11178
    2.13027     2.13935     2.14248     2.15452     2.16594     2.16970
    2.17993     2.18555     2.20243     2.21517     2.21868     2.22482
    2.24539     2.24738     2.26383     2.27855     2.28233     2.29968
    2.30286     2.30801     2.31842     2.33218     2.34531     2.35203
    2.36074     2.37024     2.38597     2.39803     2.40848     2.43121
    2.44220     2.45021     2.45701     2.45964     2.47256     2.48133
    2.48883     2.50077     2.51539     2.51965     2.53279     2.53387
    2.54542     2.54863     2.56622     2.58630     2.60520     2.62803
    2.63117     2.63578     2.64132     2.66127     2.66338     2.67690
    2.67947     2.68449     2.68690     2.70005     2.70829     2.71859
    2.72653     2.72967     2.73218     2.73718     2.74183     2.75159
    2.76448     2.76659     2.78759     2.79025     2.82074     2.83129
    2.87461     2.89118     2.90535     2.90985     2.92816     2.94125
    2.95191     2.96350     2.96428     2.97321     2.98440     2.99372
    2.99794     3.00179     3.02508     3.04315     3.05046     3.07218
    3.07504     3.10287     3.11868     3.12442     3.13086     3.16562
    3.17319     3.17791     3.19320     3.19973     3.21260     3.22261
    3.22827     3.25242     3.36302     3.37306     3.38190     3.38808
    3.39959     3.42594     3.43479     3.44233     3.44878     3.45935
    3.46942     3.48479     3.48966     3.49304     3.50238     3.51373
    3.53406     3.54129     3.56260     3.59819     3.60339     3.63514
    3.79309
 
 Beta MOs
 -- Occupied --
 -256.13595   -30.04266   -25.91092   -25.90987   -25.90893   -19.17899
  -19.15939   -19.12606   -19.11309   -19.10672   -19.10659   -19.10415
  -19.09952   -19.09451   -19.09435   -19.09078   -19.08803   -19.08359
  -14.34986   -14.33614   -10.31035   -10.27986   -10.27939   -10.27831
  -10.27440   -10.27397   -10.26282   -10.23608   -10.23265   -10.22545
  -10.21733   -10.18656   -10.18615   -10.18084   -10.17923   -10.17704
   -3.40163    -2.16547    -2.16371    -2.16205    -1.09840    -1.04558
   -1.03842    -1.03287    -1.03088    -1.02245    -1.02013    -1.01032
   -0.97811    -0.95996    -0.95390    -0.94257    -0.93948    -0.91171
   -0.90637    -0.80321    -0.77699    -0.75335    -0.74033    -0.71513
   -0.69080    -0.66383    -0.63677    -0.60896    -0.59777    -0.57742
   -0.55424    -0.54872    -0.54315    -0.53660    -0.52370    -0.50058
   -0.48992    -0.48776    -0.48458    -0.47913    -0.47566    -0.47390
   -0.45922    -0.45644    -0.45113    -0.44542    -0.43725    -0.43538
   -0.42699    -0.42533    -0.42087    -0.41930    -0.41760    -0.41199
   -0.40905    -0.40640    -0.40530    -0.39808    -0.39022    -0.38901
   -0.38545    -0.37897    -0.37312    -0.36980    -0.36858    -0.36214
   -0.36037    -0.35431    -0.35164    -0.34409    -0.34250    -0.33917
   -0.33061    -0.30608    -0.30280    -0.29372    -0.29108    -0.28191
   -0.27899    -0.27218    -0.27104    -0.26822    -0.26653    -0.25696
   -0.25111    -0.24987    -0.24598    -0.24277    -0.23169    -0.23013
   -0.22710    -0.21778
 -- Virtual --
   -0.07752    -0.07478    -0.06864    -0.03208    -0.02503     0.00782
    0.02039     0.02551     0.03025     0.03775     0.04049     0.05344
    0.06289     0.06497     0.07467     0.09507     0.10346     0.10501
    0.11130     0.11711     0.12070     0.12639     0.13315     0.13542
    0.14558     0.14651     0.15172     0.15816     0.16099     0.16346
    0.17405     0.18186     0.18406     0.18618     0.19027     0.20184
    0.20258     0.20952     0.21513     0.21753     0.23259     0.23430
    0.23841     0.24481     0.25302     0.25487     0.26241     0.26653
    0.27389     0.28108     0.28864     0.29477     0.29672     0.31412
    0.31803     0.32735     0.33061     0.33523     0.34124     0.35317
    0.36113     0.36895     0.37672     0.37983     0.39264     0.40130
[...]
    3.43391     3.44116     3.44644     3.46114     3.46237     3.48026
    3.48942     3.49105     3.50580     3.50943     3.53290     3.55768
    3.56559     3.60068     3.60496     3.63830     3.72254     3.79522
 --------------------------------------------------------------
 
          Ground-State Mulliken Net Atomic Charges

     Atom                 Charge (a.u.)    Spin (a.u.)
  --------------------------------------------------------
      1 C                     0.006699       0.000137
      2 C                     0.141532       0.000402
      3 N                    -0.225396       0.005406
      4 O                    -0.347616       0.001708
      5 C                     0.076601       0.005774
      6 C                     0.035830      -0.000223
      7 O                    -0.519049       0.158322
      8 C                     0.210020       0.002778
      9 H                     0.031747      -0.000044
     10 H                     0.051491       0.000208
     11 C                     0.125690      -0.000018
     12 N                    -0.138099       0.001115
     13 C                     0.019054      -0.000225
     14 C                     0.071432       0.000057
     15 C                     0.165498       0.000078
     16 O                    -0.265622       0.000129
     17 C                     0.184917      -0.000147
     18 C                     0.150105       0.005629
     19 O                    -0.306301       0.000516
     20 C                    -0.125226       0.001980
     21 C                     0.234992       0.005541
     22 O                    -0.475621       0.256540
     23 C                     0.093078       0.006638
     24 C                     0.146467       0.001573
     25 O                    -0.374984       0.012642
     26 O                    -0.417811       0.075115
     27 H                     0.026804       0.000008
     28 H                     0.030556       0.000026
     29 H                     0.025691      -0.000004
     30 H                     0.029790      -0.000017
     31 H                     0.020402       0.000250
     32 H                     0.034793      -0.000028
     33 H                     0.011919       0.001504
     34 H                     0.004662       0.000245
     35 H                     0.070634       0.000586
     36 H                     0.029906      -0.000034
     37 H                     0.026088      -0.000046
     38 O                    -0.361120       0.021477
     39 O                    -0.390469       0.096474
     40 H                     0.017044       0.002059
     41 O                    -0.364260       0.000134
     42 H                     0.153516       0.001486
     43 O                    -0.353975       0.017358
     44 O                    -0.384258       0.087470
     45 C                     0.080549       0.004869
     46 H                     0.031768      -0.000362
     47 H                     0.009473       0.000557
     48 Fe                    0.502083       4.184817
     49 O                    -0.200368       0.037247
     50 H                     0.197629      -0.000328
     51 H                     0.201716       0.002619
  --------------------------------------------------------
  Sum of atomic charges =    -2.000000
  Sum of spin   charges =     5.000000

 -----------------------------------------------------------------
                    Cartesian Multipole Moments
 -----------------------------------------------------------------
    Charge (ESU x 10^10)
                -9.6064
    Dipole Moment (Debye)
         X      16.9668      Y      13.3235      Z     -19.5066
       Tot      29.0843
    Quadrupole Moments (Debye-Ang)
        XX    -331.8990     XY       8.5157     YY    -248.4364
        XZ      71.6341     YZ      45.9669     ZZ    -279.4973
    Octopole Moments (Debye-Ang^2)
       XXX    2261.4289    XXY     252.8123    XYY     504.2263
       YYY     742.8999    XXZ    -885.5223    XYZ     -31.3589
       YYZ    -636.1743    XZZ     770.4510    YZZ     393.0265
       ZZZ   -1557.1091
    Hexadecapole Moments (Debye-Ang^3)
      XXXX  -21562.6766   XXXY   -1257.9078   XXYY   -4159.3617
      XYYY   -1455.3879   YYYY   -6672.9072   XXXZ    6520.7036
      XXYZ     777.8978   XYYZ    1751.5116   YYYZ    2120.0273
      XXZZ   -5435.5772   XYZZ    -839.2949   YYZZ   -3308.9357
      XZZZ    4950.3905   YZZZ    2131.6065   ZZZZ   -8508.2874
 -----------------------------------------------------------------
 Calculating analytic gradient of the SCF energy
 Gradient of SCF Energy
            1           2           3           4           5           6
    1   0.0072814  -0.0731021  -0.0222664   0.0998387   0.0019360  -0.0088528
    2   0.0052681   0.0605252  -0.0040379  -0.0758171  -0.0034212   0.0058784
    3  -0.0014477   0.0143339  -0.0146060  -0.0124073  -0.0201669   0.0314478
            7           8           9          10          11          12
    1   0.0078888  -0.0178069   0.0321204  -0.0085505  -0.0199316   0.0006304
    2  -0.0141202  -0.0679876   0.0198455  -0.0180919   0.0890943  -0.0396841
    3   0.0116281   0.0940711   0.0022911   0.0365608   0.0145324   0.0065211
           13          14          15          16          17          18
    1   0.0129217  -0.0060488  -0.0138147   0.0070685  -0.0054556   0.0041884
    2  -0.0078689   0.0101342   0.0205855  -0.0024466   0.0410672   0.0054088
    3   0.0015980  -0.0131031   0.0034783  -0.0456619  -0.0677147  -0.0017060
           19          20          21          22          23          24
    1   0.0163343   0.0263446   0.0496666   0.0037441   0.0241831   0.0663733
    2  -0.0513519   0.0292243   0.0192292  -0.0183312  -0.0003916  -0.0920661
    3   0.1194093   0.0181743  -0.1321701  -0.0165529   0.0106879   0.0085043
           25          26          27          28          29          30
    1  -0.1239417   0.0597304   0.0330867  -0.0133088   0.0140342  -0.0062019
    2   0.0871153   0.0475231  -0.0254498   0.0138578  -0.0157202  -0.0333776
    3  -0.0175367   0.0121175   0.0066649   0.0444807  -0.0397836   0.0220108
           31          32          33          34          35          36
    1  -0.0121600  -0.0076617  -0.0408726   0.0413966  -0.0506736   0.0146351
    2  -0.0087105  -0.0125186  -0.0121854  -0.0055423   0.0091389   0.0359339
    3  -0.0429536  -0.0485899   0.0246740  -0.0229887   0.0199402  -0.0263668
           37          38          39          40          41          42
    1  -0.0014487  -0.0996148   0.0543227  -0.0378136   0.0448538  -0.0256655
    2  -0.0341648  -0.0482418   0.0368951  -0.0133345  -0.1040045   0.0536752
    3  -0.0277564   0.1179853   0.0332830   0.0249236  -0.0504202   0.0176004
           43          44          45          46          47          48
    1   0.0681937  -0.0604169  -0.0116607  -0.0215612   0.0134338  -0.0163162
    2   0.0719514   0.0156460  -0.0145502   0.0152335   0.0296453   0.0027456
    3  -0.0967245  -0.0076242  -0.0058799   0.0323914  -0.0203282  -0.0026456
           49          50          51
    1   0.0225225  -0.0547893   0.0332067
    2  -0.0326004   0.0002116   0.0301835
    3   0.0559451  -0.0218751  -0.0282455
 Max gradient component =       1.322E-01
 RMS gradient           =       4.145E-02
 Computing fast CPCM-SWIG gradient
 Updating gradient with PCM contributions...
 -- total gradient after adding PCM contribution --
---------------------------------------------------
  Atom         X              Y              Z     
---------------------------------------------------
   1      -0.000001      -0.000004      -0.000002
   2       0.000019       0.000024      -0.000021
   3       0.000009      -0.000031      -0.000012
   4      -0.000016      -0.000008      -0.000002
   5       0.000007       0.000024       0.000010
   6      -0.000018       0.000017       0.000010
   7      -0.000009       0.000003      -0.000037
   8      -0.000014      -0.000041      -0.000034
   9       0.000001       0.000000      -0.000010
  10      -0.000002       0.000006      -0.000005
  11       0.000034      -0.000020       0.000017
  12      -0.000004      -0.000006      -0.000004
  13       0.000000      -0.000012      -0.000017
  14       0.000005       0.000011       0.000007
  15       0.000006      -0.000015       0.000002
  16      -0.000003       0.000011       0.000019
  17      -0.000012      -0.000032      -0.000008
  18       0.000001       0.000009       0.000013
  19       0.000013       0.000019       0.000014
  20      -0.000004       0.000011       0.000006
  21      -0.000017       0.000012      -0.000003
  22       0.000016      -0.000015      -0.000022
  23      -0.000001      -0.000003       0.000002
  24      -0.000015      -0.000005       0.000008
  25       0.000007       0.000001      -0.000004
  26       0.000019       0.000004      -0.000015
  27       0.000005      -0.000002       0.000011
  28      -0.000004       0.000009       0.000003
  29      -0.000002      -0.000006       0.000012
  30      -0.000008       0.000007       0.000013
  31       0.000000       0.000000       0.000009
  32       0.000004      -0.000004       0.000004
  33      -0.000000       0.000006       0.000003
  34       0.000000      -0.000011      -0.000011
  35       0.000001      -0.000009      -0.000001
  36      -0.000003      -0.000017       0.000000
  37      -0.000002      -0.000012       0.000004
  38       0.000006       0.000005       0.000000
  39       0.000019       0.000009      -0.000002
  40       0.000000       0.000002       0.000010
  41      -0.000019       0.000003       0.000004
  42      -0.000016      -0.000004       0.000003
  43       0.000001       0.000018       0.000013
  44       0.000003       0.000010      -0.000012
  45      -0.000004      -0.000012      -0.000005
  46       0.000004       0.000009      -0.000007
  47      -0.000001      -0.000001      -0.000015
  48      -0.000010       0.000011       0.000081
  49       0.000007       0.000017      -0.000034
  50       0.000003      -0.000006      -0.000010
  51      -0.000000       0.000017       0.000014
---------------------------------------------------
 Number of fixed atoms: 0
 Gradient time:  CPU 3519.82 s  wall 309.33 s

     Step 1	:
        Energy is -2973.0153483312
                            Maximum         Tolerance       Converged?
         Gradient           6.45527528e-05	3.00000000e-04	true
         Displacement       1.09108760e-03	1.20000000e-03	true
         Energy change      1.46762432e-07	1.00000000e-06	true

	 Optimization Converged in 1 cycles

 *****************************************************
             End of BFGS Algorithm
 *****************************************************
		----------------------------------
		   Verification of Optimization
		----------------------------------

 Eigenvalues of Hessian in Optimization Verification
   0.00196873   0.00372580   0.00432670   0.00496350   0.00532258
   0.00556640   0.00651466   0.00744863   0.00753574   0.00810813
   0.00832654   0.00915308   0.00955313   0.01018466   0.01031836
   0.01113100   0.01309497   0.01372569   0.01450505   0.01541270
   0.01632558   0.01858627   0.02244422   0.02559396   0.03095220
   0.03481219   0.03714345   0.03743369   0.03910411   0.03933899
   0.04394073   0.04599431   0.04776802   0.05186495   0.05314065
   0.05352559   0.05366115   0.05435466   0.05540891   0.05603169
   0.05752413   0.05843878   0.05900691   0.06323724   0.06777583
   0.06993190   0.07103456   0.07265306   0.07664161   0.07841186
   0.08007107   0.08527713   0.08688560   0.09052120   0.09349457
   0.09485476   0.09748558   0.09920951   0.10052816   0.10573361
   0.10683095   0.10951477   0.11429949   0.11636220   0.12167342
   0.12548104   0.13283370   0.13526992   0.13884046   0.14232885
   0.14669160   0.15017433   0.15363214   0.15999169   0.16000000
   0.16000000   0.16000000   0.16100445   0.16564570   0.16994166
   0.18107773   0.18689704   0.18936407   0.19515242   0.20073003
   0.20854385   0.21430170   0.21804127   0.22427986   0.23221387
   0.23501099   0.24626382   0.24900528   0.24957296   0.24971297
   0.24988194   0.24996188   0.25156561   0.25468437   0.25856959
   0.26078977   0.26639931   0.27174711   0.27689839   0.27948944
   0.28506635   0.29159197   0.29302867   0.29543119   0.30793549
   0.32266178   0.33189734   0.33319278   0.33358271   0.33590912
   0.33595709   0.33659072   0.33666071   0.33739359   0.33771343
   0.33791150   0.33827389   0.33925965   0.33956139   0.33975001
   0.34025090   0.34082513   0.36060007   0.37166222   0.37937574
   0.40013520   0.41767993   0.42408339   0.47694605   0.51130162
   0.52929211   0.53560559   0.55501248   0.58972348   0.61316549
   0.63405641   0.87185956   0.88420409   0.89237122   0.89793530
   0.90511629   0.95828151

 Found a minimum
		---------------------------------
		       End of Verification
		---------------------------------

 Final energy is -2973.015348331204

	******************************
	**  OPTIMIZATION CONVERGED  **
	******************************
 ----------------------------------------------------------------
             Standard Nuclear Orientation (Angstroms)
    I     Atom           X                Y                Z
 ----------------------------------------------------------------
    1      C      -6.5209164938    -2.6262473480     1.1066072135
    2      C      -6.6085869253    -1.5467069296     2.1709647616
    3      N      -5.4609725954    -1.5711995039     2.9270163162
    4      O      -7.5350670787    -0.7532990566     2.3340232253
    5      C      -4.4427800193    -2.5102833141     2.3852905437
    6      C      -5.2659974837    -0.4774484724     3.8908403191
    7      O      -3.5149714098    -1.8397371788     1.5947203601
    8      C      -3.7122598061    -3.3298701765     3.5001102875
    9      H      -7.4735682224    -3.1681724313     1.0252357314
   10      H      -6.3378173247    -2.1255464241     0.1410593343
   11      C      -4.9175651947     0.8850379370     3.2482485465
   12      N      -4.1183888387     0.8534353207     2.1647675515
   13      C      -4.2681931119    -0.7771152513     5.0139370463
   14      C      -3.7080149584     2.0630920050     1.4695778893
   15      C      -2.6535061235     2.9009449951     2.1969622445
   16      O      -1.4388970723     2.1724755732     2.5009839523
   17      C      -0.6004288608     1.9187555079     1.4756968980
   18      C       0.5941345032     1.0965570684     1.9033617197
   19      O      -0.8081404570     2.3032371386     0.3377370114
   20      C       0.3109593261    -0.4250770629     1.7609907172
   21      C       0.0938533929    -0.7846965796     0.2507270473
   22      O      -0.8272316666    -0.7602820574     2.5065702451
   23      C       1.5253301382    -1.2375799131     2.2654554627
   24      C       1.3899496024    -2.7728742289     2.2191256370
   25      O       2.4159454028    -3.4489575921     2.3574689208
   26      O       0.2087927386    -3.2967788990     2.0569126244
   27      H      -4.5826452098     2.7202073134     1.3234232964
   28      H      -3.3339831291     1.7711665190     0.4800974917
   29      H      -3.0286232213     3.2194885647     3.1768050984
   30      H      -2.4082732691     3.7834760881     1.5869510894
   31      H       0.8370104844     1.3104119144     2.9538462787
   32      H       1.7098487492    -0.9641285861     3.3195399367
   33      H       2.4335179785    -0.9740857875     1.7020047686
   34      H      -6.2550642984    -0.3056230634     4.3374718701
   35      H      -3.2519061362    -0.9440917868     4.6269209200
   36      H      -4.5772262116    -1.6613355023     5.5859649860
   37      H      -4.2367356989     0.0913440433     5.6886540439
   38      O       0.8926933003    -0.4006531385    -0.6084500979
   39      O      -0.9403825504    -1.5406856587     0.0275927786
   40      H       1.4397183066     1.3681043879     1.2585104753
   41      O      -5.3359801361     1.9307601955     3.7646417475
   42      H      -3.8089828961    -0.0690888984     1.8195437305
   43      O      -4.3554803376    -3.9305083366     4.3638708379
   44      O      -2.4214022862    -3.3581678059     3.3746369523
   45      C      -5.3384847734    -3.4800987862     1.5570959780
   46      H      -4.7524163858    -3.9110556136     0.7349334808
   47      H      -5.6868716959    -4.2896770856     2.2144066630
   48      Fe     -1.6316728916    -2.3198007446     1.7926012469
   49      O      -1.7374190975    -4.2907974231     0.6237031084
   50      H      -0.8334872932    -4.4912926527     0.9487162582
   51      H      -2.2988030615    -4.9346311826     1.0877457539
 ----------------------------------------------------------------
 Nuclear Repulsion Energy =        4456.65190063 hartrees
 There are      133 alpha and      128 beta electrons

Z-matrix Print:
$molecule
-2 6
Fe
O  1 1.894459
C  2 1.401331 1 109.955502
C  3 1.545750 2 109.799143 1 -84.047407 0
H  4 1.100777 3 110.811606 2 -179.015659 0
H  4 1.104498 3 108.214129 2 -62.062358 0
C  4 1.541948 3 116.396902 2 58.201628 0
O  7 1.236485 4 117.917851 3 165.900358 0
O  7 1.302275 4 118.942974 3 -15.072480 0
C  3 1.554293 2 109.476553 1 155.130120 0
H  10 1.097535 3 109.193780 2 -175.762303 0
H  10 1.099200 3 108.557844 2 64.229109 0
C  10 1.511916 3 111.255554 2 -56.728496 0
O  13 1.218984 10 124.765337 3 -88.915521 0
O  13 1.348561 10 112.240948 3 90.221502 0
C  15 1.448576 13 117.153559 10 -177.179011 0
H  16 1.096483 15 104.205401 13 -165.413353 0
H  16 1.100506 15 109.437014 13 -48.044602 0
C  16 1.530710 15 113.709802 13 74.373349 0
H  19 1.097357 16 109.833112 15 -64.796926 0
H  19 1.103694 16 106.437201 15 178.524419 0
N  19 1.454292 16 114.994232 15 57.004392 0
H  22 1.032455 19 119.921790 16 -107.083143 0
C  22 1.346704 19 122.176452 16 74.008046 0
O  24 1.239059 22 123.745322 19 -2.159100 0
C  24 1.546188 22 116.578044 19 -179.648615 0
H  26 1.098752 24 103.531896 22 -150.963053 0
N  26 1.470804 24 114.382132 22 -36.980446 0
C  28 1.374494 26 117.250815 24 -72.374596 0
O  29 1.230630 28 124.554350 26 -7.343533 0
C  28 1.487300 26 128.131553 24 89.666863 0
O  31 1.391209 28 111.051791 26 -66.198988 0
C  29 1.518536 28 108.945575 26 171.519034 0
H  33 1.099022 29 110.634076 28 136.424524 0
H  33 1.102955 29 107.484529 28 -106.317937 0
C  33 1.526482 29 103.622554 28 13.039391 0
H  36 1.097794 33 114.336909 29 -146.424698 0
H  36 1.099476 33 110.051018 29 90.338074 0
C  26 1.531914 24 109.285954 22 93.459914 0
H  39 1.097526 26 110.873396 24 171.527099 0
H  39 1.100206 26 108.289358 24 52.077757 0
H  39 1.100228 26 111.928668 24 -66.869381 0
C  31 1.564674 28 113.006911 26 58.286595 0
O  43 1.233118 31 120.709350 28 50.415550 0
O  43 1.297250 31 114.022448 28 -132.789042 0
C  3 1.567596 2 110.195646 1 34.321726 0
O  46 1.234431 3 120.634442 2 169.664591 0
O  46 1.300366 3 114.131963 2 -12.892934 0
H  9 1.934247 7 143.954408 4 124.024741 0
O  49 0.981287 9 124.053077 7 -134.514596 0
H  50 0.972116 49 103.800262 9 -112.903017 0
$end

 -----------------------------------------------------------------------
                  END OF GEOMETRY OPTIMIZER USING LIBOPT3               
 -----------------------------------------------------------------------
 Total job time:  3579.88s(wall), 44989.98s(cpu) 
 Mon Sep  8 15:12:20 2025

        *************************************************************
        *                                                           *
        *  Thank you very much for using Q-Chem.  Have a nice day.  *
        *                                                           *
        *************************************************************


remove work dirs /scratch/cooksy_group/qchem682305.0 -- /scratch/cooksy_group/qchem682305.0
rm -rf /scratch/cooksy_group/qchem682305.0
rm -rf /scratch/cooksy_group/qchem682305
