You are running Q-Chem version: 6.2.0

#
# job setting
#
local host:  itcotck
current dir: /home/cooksy_group/sgardner/kupper
input file:  FeVF2_RSR_b3lypDBJ_ccpVDZ_PCM_h2o_OPT.in
output file: 
nprocs     : 1
nthreads   : 16
#
# qchem installation setting
#
QC:          /opt/qchem/6.2.0
QCAUX:       /opt/qchem/6.2.0/qcaux
QCPROG:      /opt/qchem/6.2.0/exe/qcprog.exe_s
QCPROG_S:    /opt/qchem/6.2.0/exe/qcprog.exe_s
PARALLEL:    -DSERIAL
QCMPI:       seq
#
# qchem directory setting
#
qcrun:       qchem642740
QCSCRATCH:   /scratch/cooksy_group
QCLOCALSCR:  
QCTMPDIR:    /scratch/cooksy_group
QCFILEPREF:  /scratch/cooksy_group/qchem642740
QCSAVEDIR:   
workdirs:    /scratch/cooksy_group/qchem642740
workdir0:    /scratch/cooksy_group/qchem642740
partmpdirs =  
#
# parallel setting
#
QCRSH:           ssh
QCMPI:           seq
QCMPIRUN:        
QCMACHINEFILE:   /opt/qchem/6.2.0/bin/mpi/machines


#
# env setting
#
exported envs:   QC QCAUX QCSCRATCH QCRUNNAME QCFILEPREF QCPROG QCPROG_S GUIFILE

Running Job 1 of 1 FeVF2_RSR_b3lypDBJ_ccpVDZ_PCM_h2o_OPT.in
qchem FeVF2_RSR_b3lypDBJ_ccpVDZ_PCM_h2o_OPT.in_642740.0 /scratch/cooksy_group/qchem642740/ 1
/opt/qchem/6.2.0/exe/qcprog.exe_s FeVF2_RSR_b3lypDBJ_ccpVDZ_PCM_h2o_OPT.in_642740.0 /scratch/cooksy_group/qchem642740/
                  Welcome to Q-Chem
     A Quantum Leap Into The Future Of Chemistry


 Q-Chem 6.2, Q-Chem, Inc., Pleasanton, CA (2024)

 E. Epifanovsky,  A. T. B. Gilbert,  Xintian Feng,  Joonho Lee,  Yuezhi Mao,  
 N. Mardirossian,  P. Pokhilko,  A. White,  M. Wormit,  M. P. Coons,  
 A. L. Dempwolff,  Zhengting Gan,  D. Hait,  P. R. Horn,  L. D. Jacobson,  
 I. Kaliman,  J. Kussmann,  A. W. Lange,  Ka Un Lao,  D. S. Levine,  Jie Liu,  
 S. C. McKenzie,  A. F. Morrison,  K. D. Nanda,  F. Plasser,  D. R. Rehn,  
 M. L. Vidal,  Zhi-Qiang You,  Ying Zhu,  Huseyin Aksu,  B. Alam,  
 B. Albrecht,  A. Aldossary,  E. Alguire,  J. H. Andersen,  
 J. E. Arias-Martinez,  V. Athavale,  D. Barton,  K. Begam,  A. Behn,  
 N. Bellonzi,  Y. A. Bernard,  E. J. Berquist,  H. Burton,  A. Carreras,  
 K. Carter-Fenk,  Mathew Chow,  Romit Chakraborty,  Chandrima Chakravarty,  
 Junhan Chen,  A. D. Chien,  K. D. Closser,  V. Cofer-Shabica,  L. Cunha,  
 S. Dasgupta,  Jia Deng,  Joseph Dickinson,  M. de Wergifosse,  
 M. Diedenhofen,  Hainam Do,  Wenjie Dou,  S. Ehlert,  Po-Tung Fang,  
 S. Fatehi,  Qingguo Feng,  Jonathan Fetherolf,  T. Friedhoff,  
 Thomas Froitzheim,  Sarai Folkestad,  B. Ganoe,  J. Gayvert,  Qinghui Ge,  
 G. Gidofalvi,  M. Gimferrer,  M. Goldey,  Montgomery Gray,  J. Gomes,  
 C. Gonzalez-Espinoza,  S. Gulania,  A. Gunina,  J. A. Gyamfi,  
 M. W. D. Hanson-Heine,  P. H. P. Harbach,  A. W. Hauser,  M. F. Herbst,  
 M. Hernandez Vera,  M. Hodecker,  Z. C. Holden,  S. Houck,  Xunkun Huang,  
 Kerwin Hui,  B. C. Huynh,  K. Ikeda,  M. Ivanov,  Nayanthara K. Jayadev,  
 Hyunjun Ji,  Zuxin Jin,  Hanjie Jiang,  Subrata Jana,  B. Kaduk,  
 S. Kaehler,  R. Kang,  K. Khistyaev,  Jaehoon Kim,  Yongbin Kim,  
 P. Klunzinger,  Z. Koczor-Benda,  Joong Hoon Koh,  D. Kosenkov,  
 Saikiran Kotaru,  L. Koulias,  T. Kowalczyk,  C. M. Krauter,  K. Kue,  
 A. Kunitsa,  T. Kus,  A. Landau,  K. V. Lawler,  D. Lefrancois,  S. Lehtola,  
 Rain Li,  Shaozhi Li,  Tao E. Li,  Yi-Pei Li,  Jiashu Liang,  M. Liebenthal,  
 Hung-Hsuan Lin,  You-Sheng Lin,  Fenglai Liu,  Kuan-Yu Liu,  Xiao Liu,  
 M. Loipersberger,  A. Luenser,  C. Malbon,  Aniket Mandal,  Manisha,  
 A. Manjanath,  P. Manohar,  E. Mansoor,  S. F. Manzer,  Shan-Ping Mao,  
 A. V. Marenich,  T. Markovich,  S. Mason,  F. Matz,  S. A. Maurer,  
 Samuel May,  Alexandra McIsaac,  P. F. McLaughlin,  M. F. S. J. Menger,  
 J.-M. Mewes,  S. A. Mewes,  P. Morgante,  Mohammad Mostafanejad,  
 Madhubani Mukherjee,  J. W. Mullinax,  Quyen Nguyen,  Avik Kumar Ojha,  
 K. J. Oosterbaan,  Eno Paenurk,  Xiaoliang Pan,  G. Paran,  V. Parravicini,  
 Alexander C. Paul,  Suranjan K. Paul,  F. Pavosevic,  Zheng Pei,  S. Prager,  
 E. I. Proynov,  E. Ramos,  B. Rana,  A. E. Rask,  A. Rettig,  R. M. Richard,  
 F. Rob,  E. Rossomme,  T. Scheele,  M. Scheurer,  M. Schneider,  
 P. E. Schneider,  Tim K. Schramm,  N. Sergueev,  S. M. Sharada,  
 Hengyuan Shen,  W. Skomorowski,  D. W. Small,  C. J. Stein,  
 Alistair J. Sterling,  Yingli Su,  Yu-Chuan Su,  E. J. Sundstrom,  
 J. Talbot,  Zhen Tao,  J. Thirman,  Hung-Yi Tsai,  T. Tsuchimochi,  
 N. M. Tubman,  C. Utku,  S. P. Veccham,  O. Vydrov,  Rahel Weiss,  
 J. Wenzel,  Jonathan Wong,  J. Witte,  H. Wu,  Yanze Wu,  A. Yamada,  
 Chou-Hsun Yang,  Kun Yao,  S. Yeganeh,  S. R. Yost,  Qi Yu,  A. Zech,  
 F. Zeller,  Chongxiao Zhao,  Igor Ying Zhang,  Xing Zhang,  Yu Zhang,  
 D. Zuev,  A. Aspuru-Guzik,  A. T. Bell,  N. A. Besley,  K. B. Bravaya,  
 B. R. Brooks,  D. Casanova,  Jeng-Da Chai,  Hsing-Ta Chen,  S. Coriani,  
 C. J. Cramer,  A. E. DePrince, III,  R. A. DiStasio Jr.,  A. Dreuw,  
 B. D. Dunietz,  T. R. Furlani,  W. A. Goddard III,  S. Grimme,  
 S. Hammes-Schiffer,  T. Head-Gordon,  W. J. Hehre,  Chao-Ping Hsu,  
 T.-C. Jagau,  Yousung Jung,  A. Klamt,  Jing Kong,  D. S. Lambrecht,  
 Xiangyuan Li,  WanZhen Liang,  N. J. Mayhall,  C. W. McCurdy,  J. B. Neaton,  
 T. Neudecker,  C. Ochsenfeld,  J. A. Parkhill,  R. Peverati,  
 V. A. Rassolov,  Haisheng Ren,  Yihan Shao,  L. V. Slipchenko,  
 R. P. Steele,  J. E. Subotnik,  A. J. W. Thom,  A. Tkatchenko,  
 D. G. Truhlar,  T. Van Voorhis,  Fan Wang,  T. A. Wesolowski,  K. B. Whaley,  
 H. L. Woodcock III,  P. M. Zimmerman,  S. Faraji,  P. M. W. Gill,  
 M. Head-Gordon,  J. M. Herbert,  A. I. Krylov

 Contributors to earlier versions of Q-Chem not listed above: 
 R. D. Adamson,  B. Austin,  R. Baer,  J. Baker,  G. J. O. Beran,  
 K. Brandhorst,  S. T. Brown,  E. F. C. Byrd,  Arup K. Chakraborty,  
 G. K. L. Chan,  Chun-Min Chang,  Yunqing Chen,  C.-L. Cheng,  
 Siu Hung Chien,  D. M. Chipman,  D. L. Crittenden,  H. Dachsel,  
 R. J. Doerksen,  A. D. Dutoi,  R. G. Edgar,  J. Fosso-Tande,  
 L. Fusti-Molnar,  D. Ghosh,  A. Ghysels,  A. Golubeva-Zadorozhnaya,  
 J. Gonthier,  M. S. Gordon,  S. R. Gwaltney,  G. Hawkins,  J. E. Herr,  
 A. Heyden,  S. Hirata,  E. G. Hohenstein,  G. Kedziora,  F. J. Keil,  
 C. Kelley,  Jihan Kim,  R. A. King,  R. Z. Khaliullin,  P. P. Korambath,  
 W. Kurlancheek,  A. Laurent,  A. M. Lee,  M. S. Lee,  S. V. Levchenko,  
 Ching Yeh Lin,  D. Liotard,  E. Livshits,  R. C. Lochan,  I. Lotan,  
 L. A. Martinez-Martinez,  P. E. Maslen,  N. Nair,  D. P. O'Neill,  
 D. Neuhauser,  E. Neuscamman,  C. M. Oana,  R. Olivares-Amaya,  R. Olson,  
 T. M. Perrine,  B. Peters,  P. A. Pieniazek,  A. Prociuk,  Y. M. Rhee,  
 J. Ritchie,  M. A. Rohrdanz,  E. Rosta,  N. J. Russ,  H. F. Schaefer III,  
 M. W. Schmidt,  N. E. Schultz,  S. Sharma,  N. Shenvi,  C. D. Sherrill,  
 A. C. Simmonett,  A. Sodt,  T. Stein,  D. Stuck,  K. S. Thanthiriwatte,  
 V. Vanovschi,  L. Vogt,  Tao Wang,  A. Warshel,  M. A. Watson,  
 C. F. Williams,  Q. Wu,  X. Xu,  Jun Yang,  W. Zhang,  Yan Zhao

   Please cite Q-Chem as follows:
  "Software for the frontiers of quantum chemistry:
   An overview of developments in the Q-Chem 5 package"
   J. Chem. Phys. 155, 084801 (2021)
   https://doi.org/10.1063/5.0055522 (open access)

 Q-Chem 6.2.0 for Intel X86 EM64T Linux

 Parts of Q-Chem use Armadillo 9.900.5 (Nocturnal Misbehaviour).
 http://arma.sourceforge.net/

 Q-Chem begins on Sun Sep  7 13:26:02 2025  

 Host: 
0

     Scratch files written to /scratch/cooksy_group/qchem642740//
 May224 |scratch|qcdevops|jenkins|workspace|build_RNUM -1
 Processing $rem in /opt/qchem/6.2.0/config/preferences:
 Processing $rem in /home/cooksy_group/.qchemrc:
 Symmetry turned off for PCM/SM12/SMD calculation

 Checking the input file for inconsistencies... 	...done.

--------------------------------------------------------------
User input:
--------------------------------------------------------------
$molecule
-2 6
C   -6.6377003   -3.6558713    1.1617662
C   -6.8158681   -2.4317717    2.0662057
N   -5.5815861   -1.8535907    2.2266759
O   -7.8762488   -2.0028858    2.5636187
C   -4.4766522   -2.5652970    1.4912272
C   -5.4125930   -0.7227084    3.1407267
C   -5.1352648   -3.9653684    1.2996489
C   -4.2895473   -1.9371191    0.0671216
O   -3.2664676   -2.5868309    2.1845964
H   -4.7111114   -4.4921903    0.4421494
H   -4.9407510   -4.5347668    2.2148832
H   -7.3061851   -4.4639245    1.4629152
H   -6.8440916   -3.3400729    0.1360580
C   -4.7187750    0.4563267    2.4493699
O   -4.3945999    0.4447650    1.2424506
N   -4.4947298    1.5411485    3.2430753
C   -4.6717313   -1.1437064    4.4356366
H   -4.7767481    1.5461355    4.2174353
C   -3.7557394    2.6970373    2.7088741
C   -2.2254352    2.5226082    2.8756637
O   -1.6162935    2.9104259    1.5680868
C   -0.5347292    2.1977242    1.0975443
C    0.3864004    1.5172095    2.0898996
O   -0.3527547    2.1481930   -0.1199444
C    0.0850185    0.0004271    2.0425244
C    0.6914537   -0.5650313    0.7200630
O   -0.3980742   -2.7629512    2.5374415
C    0.7896143   -0.7322821    3.2069413
C    0.6980277   -2.2685838    3.1112290
O    1.6097058   -2.9813112    3.5706861
O   -0.9844380   -3.7314933    0.3426454
H   -4.1191706    3.6044415    3.1936002
H   -3.9524991    2.7383230    1.6366645
H   -2.0036218    1.4691711    3.0405985
H   -1.8171635    3.1600273    3.6633486
H    0.2654768    1.9030071    3.1025516
H    0.3090926   -0.4140900    4.1423919
H    1.8480140   -0.4653107    3.2439265
O   -3.0280974   -1.6470265   -0.2177401
O   -5.2417134   -1.8405563   -0.7301442
H   -6.4377798   -0.4216242    3.3915953
H   -3.6621716   -1.4543384    4.1701984
H   -5.1993234   -1.9896712    4.8871241
H   -4.6449343   -0.3291920    5.1656423
O    1.8745239   -0.3241482    0.4118776
O   -0.1448422   -1.3459464    0.0539047
H    1.4163669    1.6482458    1.7488631
Fe   -1.7624864   -1.8506709    1.2715881
O   -1.3291632   -0.2115722    2.0810041
H   -0.5154248   -3.8408153    1.2402798
H   -0.3558575   -3.1445774   -0.1822105
$end

$rem
BASIS  =  gen
DFT_D  =  FALSE
GUI  =  2
JOB_TYPE  =  Optimization
MEM_TOTAL  =  30000
METHOD  =  B3LYP
SCF_CONVERGENCE  =  8
SCF_MAX_CYCLES  =  200
SOLVENT_METHOD  =  PCM
$end

$geom_opt
MAXITER  200
$end

$pcm
THEORY  CPCM
$end

$solvent
DIELECTRIC  78.39
$end

$van_der_waals
26   2.44
$end

!----------------------------------------------------------------------
! Basis Set Exchange
! Version 0.11
! https://www.basissetexchange.org
!----------------------------------------------------------------------
!   Basis set: cc-pVDZ
! Description: cc-pVDZ
!        Role: orbital
!     Version: 1  (Data from ccRepo/Grant Hill)
!----------------------------------------------------------------------

$rem
BASIS GEN
PURECART 11
$end

$basis
H     0
S   4   1.00
1.301000D+01           1.968500D-02
1.962000D+00           1.379770D-01
4.446000D-01           4.781480D-01
1.220000D-01           5.012400D-01
S   1   1.00
1.220000D-01           1.000000D+00
P   1   1.00
7.270000D-01           1.0000000
****
C     0
S   9   1.00
6.665000D+03           6.920000D-04
1.000000D+03           5.329000D-03
2.280000D+02           2.707700D-02
6.471000D+01           1.017180D-01
2.106000D+01           2.747400D-01
7.495000D+00           4.485640D-01
2.797000D+00           2.850740D-01
5.215000D-01           1.520400D-02
1.596000D-01          -3.191000D-03
S   9   1.00
6.665000D+03          -1.460000D-04
1.000000D+03          -1.154000D-03
2.280000D+02          -5.725000D-03
6.471000D+01          -2.331200D-02
2.106000D+01          -6.395500D-02
7.495000D+00          -1.499810D-01
2.797000D+00          -1.272620D-01
5.215000D-01           5.445290D-01
1.596000D-01           5.804960D-01
S   1   1.00
1.596000D-01           1.000000D+00
P   4   1.00
9.439000D+00           3.810900D-02
2.002000D+00           2.094800D-01
5.456000D-01           5.085570D-01
1.517000D-01           4.688420D-01
P   1   1.00
1.517000D-01           1.000000D+00
D   1   1.00
5.500000D-01           1.0000000
****
N     0
S   9   1.00
9.046000D+03           7.000000D-04
1.357000D+03           5.389000D-03
3.093000D+02           2.740600D-02
8.773000D+01           1.032070D-01
2.856000D+01           2.787230D-01
1.021000D+01           4.485400D-01
3.838000D+00           2.782380D-01
7.466000D-01           1.544000D-02
2.248000D-01          -2.864000D-03
S   9   1.00
9.046000D+03          -1.530000D-04
1.357000D+03          -1.208000D-03
3.093000D+02          -5.992000D-03
8.773000D+01          -2.454400D-02
2.856000D+01          -6.745900D-02
1.021000D+01          -1.580780D-01
3.838000D+00          -1.218310D-01
7.466000D-01           5.490030D-01
2.248000D-01           5.788150D-01
S   1   1.00
2.248000D-01           1.000000D+00
P   4   1.00
1.355000D+01           3.991900D-02
2.917000D+00           2.171690D-01
7.973000D-01           5.103190D-01
2.185000D-01           4.622140D-01
P   1   1.00
2.185000D-01           1.000000D+00
D   1   1.00
8.170000D-01           1.0000000
****
O     0
S   9   1.00
1.172000D+04           7.100000D-04
1.759000D+03           5.470000D-03
4.008000D+02           2.783700D-02
1.137000D+02           1.048000D-01
3.703000D+01           2.830620D-01
1.327000D+01           4.487190D-01
5.025000D+00           2.709520D-01
1.013000D+00           1.545800D-02
3.023000D-01          -2.585000D-03
S   9   1.00
1.172000D+04          -1.600000D-04
1.759000D+03          -1.263000D-03
4.008000D+02          -6.267000D-03
1.137000D+02          -2.571600D-02
3.703000D+01          -7.092400D-02
1.327000D+01          -1.654110D-01
5.025000D+00          -1.169550D-01
1.013000D+00           5.573680D-01
3.023000D-01           5.727590D-01
S   1   1.00
3.023000D-01           1.000000D+00
P   4   1.00
1.770000D+01           4.301800D-02
3.854000D+00           2.289130D-01
1.046000D+00           5.087280D-01
2.753000D-01           4.605310D-01
P   1   1.00
2.753000D-01           1.000000D+00
D   1   1.00
1.185000D+00           1.0000000
****
Fe     0
S   20   1.00
4.316265D+06           8.048803D-06
6.463424D+05           6.258306D-05
1.470897D+05           3.290239D-04
4.166152D+04           1.387355D-03
1.359077D+04           5.023256D-03
4.905750D+03           1.610140D-02
1.912746D+03           4.590034D-02
7.926043D+02           1.136154D-01
3.448065D+02           2.283869D-01
1.558999D+02           3.221159D-01
7.223091D+01           2.383661D-01
3.272506D+01           7.404667D-02
1.566762D+01           9.214197D-02
7.503483D+00           9.339790D-02
3.312223D+00           1.573965D-02
1.558471D+00          -4.186682D-04
6.839140D-01           5.376318D-05
1.467570D-01          -3.816654D-05
7.058300D-02           4.319603D-05
3.144900D-02          -3.401019D-06
S   20   1.00
4.316265D+06          -4.155954D-06
6.463424D+05          -3.231401D-05
1.470897D+05          -1.699525D-04
4.166152D+04          -7.171369D-04
1.359077D+04          -2.603625D-03
4.905750D+03          -8.399109D-03
1.912746D+03          -2.434109D-02
7.926043D+02          -6.251948D-02
3.448065D+02          -1.365929D-01
1.558999D+02          -2.312707D-01
7.223091D+01          -2.383734D-01
3.272506D+01           3.123837D-02
1.566762D+01           5.086818D-01
7.503483D+00           4.987695D-01
3.312223D+00           9.033552D-02
1.558471D+00          -6.005337D-03
6.839140D-01           2.312454D-04
1.467570D-01          -5.643680D-04
7.058300D-02           4.992260D-04
3.144900D-02          -1.015293D-04
S   20   1.00
4.316265D+06           9.532178D-07
6.463424D+05           7.414605D-06
1.470897D+05           3.898393D-05
4.166152D+04           1.647152D-04
1.359077D+04           5.985980D-04
4.905750D+03           1.942390D-03
1.912746D+03           5.687237D-03
7.926043D+02           1.501329D-02
3.448065D+02           3.452455D-02
1.558999D+02           6.495820D-02
7.223091D+01           7.716194D-02
3.272506D+01          -1.873411D-02
1.566762D+01          -3.009185D-01
7.503483D+00          -4.554661D-01
3.312223D+00           1.286463D-01
1.558471D+00           7.183316D-01
6.839140D-01           4.051743D-01
1.467570D-01           2.168227D-02
7.058300D-02          -8.343566D-03
3.144900D-02           3.658979D-03
S   20   1.00
4.316265D+06          -2.063008D-07
6.463424D+05          -1.604169D-06
1.470897D+05          -8.438437D-06
4.166152D+04          -3.563151D-05
1.359077D+04          -1.295998D-04
4.905750D+03          -4.201534D-04
1.912746D+03          -1.231954D-03
7.926043D+02          -3.248922D-03
3.448065D+02          -7.493717D-03
1.558999D+02          -1.410102D-02
7.223091D+01          -1.691600D-02
3.272506D+01           4.218996D-03
1.566762D+01           6.833810D-02
7.503483D+00           1.098201D-01
3.312223D+00          -4.009005D-02
1.558471D+00          -2.174739D-01
6.839140D-01          -2.465135D-01
1.467570D-01           2.731435D-01
7.058300D-02           5.748321D-01
3.144900D-02           3.012713D-01
S   20   1.00
4.316265D+06          -4.009367D-07
6.463424D+05          -3.189255D-06
1.470897D+05          -1.623079D-05
4.166152D+04          -7.157920D-05
1.359077D+04          -2.463958D-04
4.905750D+03          -8.544907D-04
1.912746D+03          -2.307593D-03
7.926043D+02          -6.728292D-03
3.448065D+02          -1.366165D-02
1.558999D+02          -3.062240D-02
7.223091D+01          -2.631137D-02
3.272506D+01          -9.760183D-03
1.566762D+01           1.801906D-01
7.503483D+00           1.529634D-01
3.312223D+00           5.505413D-02
1.558471D+00          -9.551364D-01
6.839140D-01           2.586813D-01
1.467570D-01           1.834049D+00
7.058300D-02          -9.333240D-01
3.144900D-02          -6.981605D-01
S   1   1.00
3.144900D-02           1.000000D+00
P   16   1.00
1.774569D+04           4.100000D-05
4.200721D+03           3.690000D-04
1.364429D+03           2.129000D-03
5.220806D+02           9.369000D-03
2.214595D+02           3.309700D-02
1.009096D+02           9.443100D-02
4.840115D+01           2.080770D-01
2.398536D+01           3.323330D-01
1.218250D+01           3.329870D-01
6.242298D+00           1.568430D-01
3.110944D+00           2.154900D-02
1.509958D+00          -2.095000D-03
7.108450D-01          -1.739000D-03
2.731900D-01          -3.000000D-04
1.042330D-01           2.900000D-05
3.829100D-02          -1.100000D-05
P   16   1.00
1.774569D+04          -1.500000D-05
4.200721D+03          -1.300000D-04
1.364429D+03          -7.510000D-04
5.220806D+02          -3.329000D-03
2.214595D+02          -1.191200D-02
1.009096D+02          -3.493300D-02
4.840115D+01          -7.998900D-02
2.398536D+01          -1.346360D-01
1.218250D+01          -1.385980D-01
6.242298D+00           3.027800D-02
3.110944D+00           3.332160D-01
1.509958D+00           4.561530D-01
7.108450D-01           2.850510D-01
2.731900D-01           4.614400D-02
1.042330D-01          -3.249000D-03
3.829100D-02           1.357000D-03
P   16   1.00
1.774569D+04           5.000000D-06
4.200721D+03           4.200000D-05
1.364429D+03           2.410000D-04
5.220806D+02           1.085000D-03
2.214595D+02           3.831000D-03
1.009096D+02           1.142300D-02
4.840115D+01           2.579200D-02
2.398536D+01           4.481800D-02
1.218250D+01           4.459800D-02
6.242298D+00          -1.117700D-02
3.110944D+00          -1.381340D-01
1.509958D+00          -1.882850D-01
7.108450D-01          -1.073990D-01
2.731900D-01           4.448630D-01
1.042330D-01           6.402390D-01
3.829100D-02           6.445700D-02
P   16   1.00
1.774569D+04           3.000000D-06
4.200721D+03           2.900000D-05
1.364429D+03           1.650000D-04
5.220806D+02           7.340000D-04
2.214595D+02           2.626000D-03
1.009096D+02           7.725000D-03
4.840115D+01           1.773300D-02
2.398536D+01           3.005500D-02
1.218250D+01           3.109400D-02
6.242298D+00          -1.004800D-02
3.110944D+00          -8.830600D-02
1.509958D+00          -1.298240D-01
7.108450D-01          -7.693700D-02
2.731900D-01           2.126610D-01
1.042330D-01           5.730610D-01
3.829100D-02           3.696510D-01
P   1   1.00
3.829100D-02           1.000000D+00
D   8   1.00
1.133440D+02           3.530000D-03
3.364140D+01           2.578400D-02
1.233100D+01           9.911900D-02
4.994780D+00           2.390730D-01
2.072800D+00           3.571990D-01
8.307530D-01           3.621880D-01
3.091780D-01           2.364610D-01
1.001300D-01           6.011800D-02
D   8   1.00
1.133440D+02          -3.890000D-03
3.364140D+01          -2.844200D-02
1.233100D+01          -1.124290D-01
4.994780D+00          -2.742570D-01
2.072800D+00          -3.155460D-01
8.307530D-01           5.710900D-02
3.091780D-01           5.636040D-01
1.001300D-01           3.846370D-01
D   1   1.00
1.001300D-01           1.000000D+00
F   2   1.00
3.224300D+00           4.222490D-01
7.758000D-01           7.714680D-01
****
$end


--------------------------------------------------------------
 ----------------------------------------------------------------
             Standard Nuclear Orientation (Angstroms)
    I     Atom           X                Y                Z
 ----------------------------------------------------------------
    1      C      -6.6377003000    -3.6558713000     1.1617662000
    2      C      -6.8158681000    -2.4317717000     2.0662057000
    3      N      -5.5815861000    -1.8535907000     2.2266759000
    4      O      -7.8762488000    -2.0028858000     2.5636187000
    5      C      -4.4766522000    -2.5652970000     1.4912272000
    6      C      -5.4125930000    -0.7227084000     3.1407267000
    7      C      -5.1352648000    -3.9653684000     1.2996489000
    8      C      -4.2895473000    -1.9371191000     0.0671216000
    9      O      -3.2664676000    -2.5868309000     2.1845964000
   10      H      -4.7111114000    -4.4921903000     0.4421494000
   11      H      -4.9407510000    -4.5347668000     2.2148832000
   12      H      -7.3061851000    -4.4639245000     1.4629152000
   13      H      -6.8440916000    -3.3400729000     0.1360580000
   14      C      -4.7187750000     0.4563267000     2.4493699000
   15      O      -4.3945999000     0.4447650000     1.2424506000
   16      N      -4.4947298000     1.5411485000     3.2430753000
   17      C      -4.6717313000    -1.1437064000     4.4356366000
   18      H      -4.7767481000     1.5461355000     4.2174353000
   19      C      -3.7557394000     2.6970373000     2.7088741000
   20      C      -2.2254352000     2.5226082000     2.8756637000
   21      O      -1.6162935000     2.9104259000     1.5680868000
   22      C      -0.5347292000     2.1977242000     1.0975443000
   23      C       0.3864004000     1.5172095000     2.0898996000
   24      O      -0.3527547000     2.1481930000    -0.1199444000
   25      C       0.0850185000     0.0004271000     2.0425244000
   26      C       0.6914537000    -0.5650313000     0.7200630000
   27      O      -0.3980742000    -2.7629512000     2.5374415000
   28      C       0.7896143000    -0.7322821000     3.2069413000
   29      C       0.6980277000    -2.2685838000     3.1112290000
   30      O       1.6097058000    -2.9813112000     3.5706861000
   31      O      -0.9844380000    -3.7314933000     0.3426454000
   32      H      -4.1191706000     3.6044415000     3.1936002000
   33      H      -3.9524991000     2.7383230000     1.6366645000
   34      H      -2.0036218000     1.4691711000     3.0405985000
   35      H      -1.8171635000     3.1600273000     3.6633486000
   36      H       0.2654768000     1.9030071000     3.1025516000
   37      H       0.3090926000    -0.4140900000     4.1423919000
   38      H       1.8480140000    -0.4653107000     3.2439265000
   39      O      -3.0280974000    -1.6470265000    -0.2177401000
   40      O      -5.2417134000    -1.8405563000    -0.7301442000
   41      H      -6.4377798000    -0.4216242000     3.3915953000
   42      H      -3.6621716000    -1.4543384000     4.1701984000
   43      H      -5.1993234000    -1.9896712000     4.8871241000
   44      H      -4.6449343000    -0.3291920000     5.1656423000
   45      O       1.8745239000    -0.3241482000     0.4118776000
   46      O      -0.1448422000    -1.3459464000     0.0539047000
   47      H       1.4163669000     1.6482458000     1.7488631000
   48      Fe     -1.7624864000    -1.8506709000     1.2715881000
   49      O      -1.3291632000    -0.2115722000     2.0810041000
   50      H      -0.5154248000    -3.8408153000     1.2402798000
   51      H      -0.3558575000    -3.1445774000    -0.1822105000
 ----------------------------------------------------------------
 Nuclear Repulsion Energy =        4506.09444246 hartrees
 There are      133 alpha and      128 beta electrons
 Requested basis set is non-standard
 There are 258 shells and 572 basis functions

 Total QAlloc Memory Limit  30000 MB
 Mega-Array Size       188 MB
 MEM_STATIC part       192 MB

 -----------------------------------------------------------------------
                STARTING GEOMETRY OPTIMIZER USING LIBOPT3
                by Peter F. McLaughlin, Yu Zhang, Evgeny Epifanovsky
 -----------------------------------------------------------------------

              Initial Energy and Gradient Calculation
   -- Checking Topology for Ill-Behaving Coordinates --

 -------------------------------------------
   Coordinate       |  Removed | Additions 
 -------------------------------------------
	Bonds                     0          0
	Angles                    1          0
	Torsions                  2          2
	Co-Linear Type5s          0          2
	Co-Linear Type6s          0          2
 -------------------------------------------

 ** Ill-Behaving Topology Definitions (No action needed.) **

  Ill-Defined Angles Removed: 
   9  48  46

  Ill-Defined Torsions Removed: 
   5   9  48  46,  26  46  48   9

     Done Checking Topology
 ----------------------------------------------------------------
             Standard Nuclear Orientation (Angstroms)
    I     Atom           X                Y                Z
 ----------------------------------------------------------------
    1      C      -6.6377003000    -3.6558713000     1.1617662000
    2      C      -6.8158681000    -2.4317717000     2.0662057000
    3      N      -5.5815861000    -1.8535907000     2.2266759000
    4      O      -7.8762488000    -2.0028858000     2.5636187000
    5      C      -4.4766522000    -2.5652970000     1.4912272000
    6      C      -5.4125930000    -0.7227084000     3.1407267000
    7      C      -5.1352648000    -3.9653684000     1.2996489000
    8      C      -4.2895473000    -1.9371191000     0.0671216000
    9      O      -3.2664676000    -2.5868309000     2.1845964000
   10      H      -4.7111114000    -4.4921903000     0.4421494000
   11      H      -4.9407510000    -4.5347668000     2.2148832000
   12      H      -7.3061851000    -4.4639245000     1.4629152000
   13      H      -6.8440916000    -3.3400729000     0.1360580000
   14      C      -4.7187750000     0.4563267000     2.4493699000
   15      O      -4.3945999000     0.4447650000     1.2424506000
   16      N      -4.4947298000     1.5411485000     3.2430753000
   17      C      -4.6717313000    -1.1437064000     4.4356366000
   18      H      -4.7767481000     1.5461355000     4.2174353000
   19      C      -3.7557394000     2.6970373000     2.7088741000
   20      C      -2.2254352000     2.5226082000     2.8756637000
   21      O      -1.6162935000     2.9104259000     1.5680868000
   22      C      -0.5347292000     2.1977242000     1.0975443000
   23      C       0.3864004000     1.5172095000     2.0898996000
   24      O      -0.3527547000     2.1481930000    -0.1199444000
   25      C       0.0850185000     0.0004271000     2.0425244000
   26      C       0.6914537000    -0.5650313000     0.7200630000
   27      O      -0.3980742000    -2.7629512000     2.5374415000
   28      C       0.7896143000    -0.7322821000     3.2069413000
   29      C       0.6980277000    -2.2685838000     3.1112290000
   30      O       1.6097058000    -2.9813112000     3.5706861000
   31      O      -0.9844380000    -3.7314933000     0.3426454000
   32      H      -4.1191706000     3.6044415000     3.1936002000
   33      H      -3.9524991000     2.7383230000     1.6366645000
   34      H      -2.0036218000     1.4691711000     3.0405985000
   35      H      -1.8171635000     3.1600273000     3.6633486000
   36      H       0.2654768000     1.9030071000     3.1025516000
   37      H       0.3090926000    -0.4140900000     4.1423919000
   38      H       1.8480140000    -0.4653107000     3.2439265000
   39      O      -3.0280974000    -1.6470265000    -0.2177401000
   40      O      -5.2417134000    -1.8405563000    -0.7301442000
   41      H      -6.4377798000    -0.4216242000     3.3915953000
   42      H      -3.6621716000    -1.4543384000     4.1701984000
   43      H      -5.1993234000    -1.9896712000     4.8871241000
   44      H      -4.6449343000    -0.3291920000     5.1656423000
   45      O       1.8745239000    -0.3241482000     0.4118776000
   46      O      -0.1448422000    -1.3459464000     0.0539047000
   47      H       1.4163669000     1.6482458000     1.7488631000
   48      Fe     -1.7624864000    -1.8506709000     1.2715881000
   49      O      -1.3291632000    -0.2115722000     2.0810041000
   50      H      -0.5154248000    -3.8408153000     1.2402798000
   51      H      -0.3558575000    -3.1445774000    -0.1822105000
 ----------------------------------------------------------------
 Nuclear Repulsion Energy =        4506.09444246 hartrees
 There are      133 alpha and      128 beta electrons
 Using C-PCM dielectric factor f(eps) = (eps-1)/eps = 0.987243
 Static dielectric constant eps = 78.39
 No default van der Waals radius is available for Z = 26
	Found R = 2.4400 A in the $van_der_waals section
 Discretize the solute cavity surface with Lebedev spheres
	Using 110 Lebedev grid points for each H atom
	Using 194 Lebedev grid points for other atoms
	Atomic van der Waals radii (Bondi set) will be scaled by 1.20
 Using smooth SwiG surface discretization
 Remove points where switching function is < 1.0e-08
 Keep 2993 surface tesserae and discard 5305 interior tesserae
 Molecular Surface Area = 401.106 Angst**2

 Requested basis set is non-standard
 There are 258 shells and 572 basis functions
 A cutoff of  1.0D-12 yielded  29528 shell pairs
 There are    135486 function pairs (    151698 Cartesian)
 Smallest overlap matrix eigenvalue = 2.53E-04

 Scale SEOQF with 1.000000e-02/1.000000e-01/1.000000e-01

 Standard Electronic Orientation quadrupole field applied
 Nucleus-field energy     =    -0.0000000290 hartrees
 ================ Generating on-the-fly SAD Guess ================
 Attempting to make child job directory: /scratch/cooksy_group/qchem642740//Frg1/
 Attempting to make child job directory: /scratch/cooksy_group/qchem642740//Frg2/
 Attempting to make child job directory: /scratch/cooksy_group/qchem642740//Frg3/
 Attempting to make child job directory: /scratch/cooksy_group/qchem642740//Frg4/
 Attempting to make child job directory: /scratch/cooksy_group/qchem642740//Frg5/
 Creating input file /scratch/cooksy_group/qchem642740/Frg1.input
 using default PutDataFrgm: nothing
 calling putenv with: QCSCRATCH=/scratch/cooksy_group/qchem642740/ 
 Spawning Job For Fragment 0
 Done Job For Fragment 0
 calling putenv with: QCSCRATCH=/scratch/cooksy_group 
 calling putenv with: QCTHREADS=16 
 Creating input file /scratch/cooksy_group/qchem642740/Frg2.input
 using default PutDataFrgm: nothing
 calling putenv with: QCSCRATCH=/scratch/cooksy_group/qchem642740/ 
 Spawning Job For Fragment 1
 Done Job For Fragment 1
 calling putenv with: QCSCRATCH=/scratch/cooksy_group 
 calling putenv with: QCTHREADS=16 
 Creating input file /scratch/cooksy_group/qchem642740/Frg3.input
 using default PutDataFrgm: nothing
 calling putenv with: QCSCRATCH=/scratch/cooksy_group/qchem642740/ 
 Spawning Job For Fragment 2
 Done Job For Fragment 2
 calling putenv with: QCSCRATCH=/scratch/cooksy_group 
 calling putenv with: QCTHREADS=16 
 Creating input file /scratch/cooksy_group/qchem642740/Frg4.input
 using default PutDataFrgm: nothing
 calling putenv with: QCSCRATCH=/scratch/cooksy_group/qchem642740/ 
 Spawning Job For Fragment 3
 Done Job For Fragment 3
 calling putenv with: QCSCRATCH=/scratch/cooksy_group 
 calling putenv with: QCTHREADS=16 
 Creating input file /scratch/cooksy_group/qchem642740/Frg5.input
 using default PutDataFrgm: nothing
 calling putenv with: QCSCRATCH=/scratch/cooksy_group/qchem642740/ 
 Spawning Job For Fragment 4
 Done Job For Fragment 4
 calling putenv with: QCSCRATCH=/scratch/cooksy_group 
 calling putenv with: QCTHREADS=16 
 Time for running child jobs:  CPU 0.03 s  wall 111.80 s
 ============= Method Specific SAD Guess Constructed =============
 Guess from on-the-fly superposition of atomic densities
 Warning: Energy on first SCF cycle will be non-variational

 -----------------------------------------------------------------------
  General SCF calculation program by
  Eric Jon Sundstrom, Paul Horn, Yuezhi Mao, Dmitri Zuev, Alec White,
  David Stuck, Shaama M.S., Shane Yost, Joonho Lee, David Small,
  Daniel Levine, Susi Lehtola, Hugh Burton, Evgeny Epifanovsky,
  Bang C. Huynh
 -----------------------------------------------------------------------
 Exchange:     0.2000 Hartree-Fock + 0.0800 Slater + 0.7200 B88
 Correlation:  0.1900 VWN1RPA + 0.8100 LYP
 Using SG-1 standard quadrature grid
 using 16 threads for integral computing
 -------------------------------------------------------
 OpenMP Integral computing Module                
 Release: version 1.0, May 2013, Q-Chem Inc. Pittsburgh 
 -------------------------------------------------------
 C-PCM solvent model [f = (eps-1)/eps], solve by matrix inversion
 A unrestricted SCF calculation will be
 performed using DIIS
 SCF converges when DIIS error is below 1.0e-08
 ---------------------------------------
  Cycle       Energy         DIIS error
 ---------------------------------------
    1   -2983.4618536863      1.79e-02  
    2   -2972.0687261019      2.55e-03  
    3   -2969.2296890136      5.99e-03  
    4   -2972.4224605107      2.22e-03  
    5   -2972.9595876472      2.95e-04  
    6   -2972.9585910498      3.44e-04  
    7   -2972.9743506898      8.41e-05  
    8   -2972.9752356784      4.16e-05  
    9   -2972.9754849410      1.87e-05  
   10   -2972.9755366590      6.72e-06  
   11   -2972.9755436980      3.72e-06  
   12   -2972.9755456697      2.00e-06  
   13   -2972.9755462022      7.78e-07  
   14   -2972.9755463048      3.11e-07  
   15   -2972.9755463290      1.64e-07  
   16   -2972.9755463335      8.58e-08  
   17   -2972.9755463351      4.23e-08  
   18   -2972.9755463355      2.43e-08  
   19   -2972.9755463358      9.58e-09  Convergence criterion met
 ---------------------------------------
 SCF time:   CPU 27197.95s  wall 1947.00s 
<S^2> =          8.756982659

************** Final PCM Free Energy Summary **************
 G_electrostatic  =      -0.29248460 hartree =    -183.53685495 kcal/mol
 G_cavitation     =       0.00000000 hartree =       0.00000000 kcal/mol
 G_dispersion     =       0.00000000 hartree =       0.00000000 kcal/mol
 G_repulsion      =       0.00000000 hartree =       0.00000000 kcal/mol
 --------------------------------------------------
 Non-electrostatic Free Energy =       0.00000000 hartree =       0.00000000 kcal/mol
 Total                         =      -0.29248460 hartree =    -183.53685495 kcal/mol
 --------------------------------------------------
 SCF Energy (H0 + V/2)                       =   -2972.97554634 
 Solute Internal Energy (H0)                 =   -2972.68306174 
 Total Free Energy (H0 + V/2 + non-elec)     =   -2972.97554634 hartree
                                             = -1865570.32148350 kcal/mol
***********************************************************

 SCF   energy = -2972.97554634
 Total energy = -2972.97554634
 
 --------------------------------------------------------------
 
                    Orbital Energies (a.u.)
 --------------------------------------------------------------
 
 Alpha MOs
 -- Occupied --
 -256.12453   -30.12354   -25.97684   -25.97582   -25.97279   -19.17017
  -19.13886   -19.12372   -19.10934   -19.10931   -19.10762   -19.10634
  -19.10276   -19.09638   -19.09437   -19.09376   -19.09331   -19.09183
  -14.35144   -14.34481   -10.31392   -10.28654   -10.28383   -10.27903
  -10.27745   -10.27669   -10.25933   -10.23495   -10.23026   -10.22640
  -10.21841   -10.18657   -10.18050   -10.17994   -10.17855   -10.17315
   -3.60736    -2.38450    -2.38207    -2.37707    -1.07547    -1.03779
   -1.03519    -1.02819    -1.02392    -1.01729    -0.99916    -0.99580
   -0.97266    -0.96315    -0.94674    -0.94555    -0.94168    -0.91436
   -0.90869    -0.80161    -0.77536    -0.75649    -0.72932    -0.72055
   -0.68031    -0.65776    -0.63229    -0.62033    -0.60104    -0.57984
   -0.55700    -0.55497    -0.54469    -0.53162    -0.52988    -0.50256
   -0.49749    -0.49293    -0.48571    -0.47886    -0.47631    -0.46808
   -0.46450    -0.45637    -0.45168    -0.44940    -0.44240    -0.43702
   -0.43578    -0.43098    -0.42803    -0.42394    -0.41986    -0.41436
   -0.40787    -0.40391    -0.40337    -0.39977    -0.39781    -0.39685
   -0.39179    -0.38729    -0.38570    -0.38170    -0.37778    -0.37365
   -0.37125    -0.36807    -0.36530    -0.35876    -0.35759    -0.35460
   -0.35262    -0.34699    -0.34223    -0.33350    -0.33012    -0.31562
   -0.29677    -0.29070    -0.28606    -0.28183    -0.26998    -0.26863
   -0.26434    -0.26207    -0.25896    -0.25876    -0.25199    -0.25118
   -0.24733    -0.23974    -0.23824    -0.23242    -0.22169    -0.21223
   -0.20551
 -- Virtual --
    0.00023     0.02153     0.02433     0.02945     0.03412     0.04389
    0.04695     0.05925     0.06986     0.07750     0.08876     0.09453
    0.10129     0.10662     0.11016     0.12136     0.12658     0.13132
    0.13690     0.14417     0.14854     0.15376     0.16319     0.16501
    0.17083     0.17795     0.18069     0.18227     0.18616     0.19149
    0.19940     0.20361     0.20955     0.21817     0.22554     0.22803
    0.23072     0.23910     0.24349     0.25247     0.25489     0.25984
    0.26236     0.27016     0.27991     0.28799     0.29033     0.29988
    0.30375     0.31241     0.32024     0.32320     0.34236     0.34262
    0.35223     0.36062     0.36469     0.37338     0.37779     0.38123
    0.39539     0.39766     0.41721     0.42361     0.43665     0.44435
    0.44865     0.45096     0.45931     0.46209     0.47025     0.47112
    0.48196     0.49328     0.50015     0.50571     0.51150     0.51619
    0.51698     0.51874     0.52730     0.53144     0.53881     0.54604
    0.55245     0.55772     0.56717     0.57189     0.57839     0.58450
    0.58913     0.59189     0.59807     0.59986     0.60846     0.61249
    0.61720     0.61989     0.62455     0.62653     0.63123     0.63888
    0.64258     0.64814     0.64997     0.65098     0.65516     0.65669
    0.65925     0.66328     0.66673     0.67304     0.67968     0.68367
    0.68633     0.69276     0.69555     0.70051     0.70992     0.71085
    0.71545     0.72378     0.72619     0.73463     0.73738     0.74341
    0.76037     0.76740     0.77165     0.77566     0.78963     0.79594
    0.80967     0.81736     0.81998     0.82888     0.83982     0.86071
    0.86212     0.87460     0.88035     0.88687     0.89217     0.90362
    0.91872     0.92134     0.94320     0.95334     0.96300     0.97126
    0.97425     0.98719     0.99514     1.01054     1.02135     1.02697
    1.03211     1.04346     1.05190     1.06769     1.06891     1.07101
    1.08346     1.08676     1.09421     1.09804     1.10031     1.10542
    1.11469     1.11865     1.12158     1.13295     1.13628     1.14198
    1.15086     1.15815     1.16245     1.16700     1.18657     1.19285
    1.19679     1.20369     1.20844     1.22186     1.22832     1.23377
    1.24057     1.24647     1.25019     1.25512     1.26118     1.26175
    1.26899     1.27538     1.28681     1.29093     1.29686     1.30760
    1.32086     1.32710     1.33318     1.33649     1.34589     1.35000
    1.35906     1.36823     1.37245     1.37725     1.40134     1.41142
    1.41889     1.42571     1.43238     1.44458     1.45081     1.45509
    1.46662     1.47257     1.48970     1.49469     1.50085     1.50585
    1.51207     1.52341     1.52650     1.53556     1.54653     1.55456
    1.56026     1.56950     1.57728     1.58238     1.58743     1.59261
    1.60059     1.60736     1.60932     1.61696     1.61896     1.62562
    1.63363     1.63498     1.64029     1.64363     1.65095     1.65302
    1.66014     1.67205     1.67497     1.67895     1.68678     1.68964
    1.69702     1.70303     1.70691     1.71334     1.71936     1.72336
    1.73239     1.73376     1.73818     1.74350     1.74669     1.75071
    1.75997     1.76809     1.77610     1.77976     1.78736     1.79622
    1.79847     1.80053     1.81392     1.81976     1.82786     1.83404
    1.84306     1.85207     1.85645     1.86690     1.87166     1.87693
    1.88609     1.89032     1.90324     1.91086     1.91483     1.92413
    1.92744     1.93201     1.94593     1.95602     1.96507     1.97463
    1.98259     1.98845     1.99343     1.99392     2.01338     2.02101
    2.02585     2.03267     2.03577     2.04951     2.05104     2.05406
    2.06191     2.07155     2.08904     2.10073     2.11290     2.12406
    2.13597     2.14090     2.14370     2.15331     2.16805     2.17437
    2.19039     2.19247     2.20165     2.21506     2.21686     2.22234
    2.24511     2.24706     2.25921     2.26663     2.28396     2.29119
    2.29868     2.30312     2.31472     2.31827     2.33351     2.34346
    2.35264     2.36719     2.38369     2.38925     2.40386     2.42931
    2.44938     2.46075     2.46669     2.46967     2.47651     2.49294
    2.49991     2.51247     2.51603     2.52232     2.54171     2.54818
    2.55787     2.57016     2.57920     2.59585     2.60252     2.63000
    2.63644     2.63760     2.64083     2.65807     2.66731     2.67465
    2.67970     2.68213     2.69485     2.69823     2.70748     2.71804
    2.72385     2.72573     2.72696     2.73701     2.73981     2.75147
    2.75549     2.77074     2.79639     2.80014     2.80609     2.81484
    2.85983     2.86920     2.88885     2.89543     2.91618     2.93093
    2.93700     2.95421     2.96339     2.96775     2.98395     3.00575
    3.00915     3.04269     3.05576     3.06182     3.06596     3.08133
    3.08740     3.09772     3.09988     3.11922     3.13032     3.13692
    3.13869     3.15753     3.17631     3.19027     3.19974     3.22345
    3.24344     3.27009     3.32527     3.33237     3.35386     3.35843
    3.37959     3.41317     3.42895     3.43184     3.43725     3.45310
    3.47124     3.47964     3.49797     3.50531     3.51241     3.51768
    3.53244     3.54231     3.59473     3.60505     3.61702     3.69989
    3.74420
 
 Beta MOs
 -- Occupied --
 -256.12269   -30.03054   -25.89883   -25.89780   -25.89632   -19.17017
  -19.13683   -19.12372   -19.10661   -19.10656   -19.10636   -19.10378
  -19.10272   -19.09602   -19.09398   -19.09126   -19.08754   -19.08690
  -14.35144   -14.34464   -10.31392   -10.28651   -10.28383   -10.27899
  -10.27738   -10.27668   -10.25926   -10.23491   -10.23019   -10.22641
  -10.21841   -10.18646   -10.18039   -10.17993   -10.17843   -10.17314
   -3.39099    -2.15581    -2.15311    -2.15135    -1.07543    -1.03478
   -1.03274    -1.02577    -1.02264    -1.01688    -0.99912    -0.99187
   -0.96496    -0.95418    -0.94117    -0.94112    -0.93389    -0.91434
   -0.90422    -0.80123    -0.77243    -0.75620    -0.72915    -0.72011
   -0.67799    -0.65767    -0.63213    -0.61845    -0.60009    -0.57978
   -0.55493    -0.55369    -0.53996    -0.53021    -0.52467    -0.49562
   -0.49009    -0.48565    -0.48055    -0.47557    -0.47007    -0.46484
   -0.46052    -0.44959    -0.44778    -0.44080    -0.43459    -0.43339
   -0.42885    -0.42498    -0.42380    -0.41665    -0.41217    -0.40836
   -0.40126    -0.39651    -0.39354    -0.39019    -0.38467    -0.38182
   -0.38110    -0.37333    -0.37011    -0.36813    -0.36622    -0.36138
   -0.35829    -0.35664    -0.35383    -0.34330    -0.33378    -0.33153
   -0.32413    -0.29650    -0.29433    -0.29396    -0.28731    -0.28028
   -0.27364    -0.26862    -0.26702    -0.26435    -0.26218    -0.25753
   -0.25095    -0.24915    -0.24717    -0.24368    -0.23811    -0.23372
   -0.22209    -0.21639
 -- Virtual --
   -0.06704    -0.06183    -0.05605    -0.02221    -0.00836     0.00099
    0.02170     0.02535     0.03186     0.03543     0.04544     0.05016
    0.05961     0.07062     0.07808     0.08926     0.09514     0.10154
    0.10758     0.11034     0.12157     0.12725     0.13162     0.13746
    0.14533     0.14934     0.15497     0.16384     0.16561     0.17139
    0.17850     0.18182     0.18320     0.18680     0.19231     0.20105
    0.20709     0.21078     0.22056     0.22684     0.22994     0.23252
    0.24108     0.24523     0.25543     0.25863     0.26350     0.27027
    0.27501     0.28237     0.29081     0.29237     0.30577     0.30939
    0.31705     0.32387     0.32778     0.34483     0.34710     0.35523
    0.36471     0.37134     0.37524     0.38151     0.38490     0.39919
    0.40775     0.42118     0.42677     0.43981     0.44776     0.45121
    0.45277     0.46092     0.46318     0.47099     0.47284     0.48468
    0.49544     0.50073     0.50649     0.51452     0.51722     0.51844
    0.52053     0.52852     0.53376     0.54105     0.54766     0.55368
    0.56006     0.56838     0.57310     0.57982     0.58596     0.59070
    0.59273     0.59885     0.60064     0.60968     0.61437     0.61908
    0.62045     0.62562     0.62908     0.63257     0.63942     0.64377
    0.64961     0.65151     0.65251     0.65569     0.65823     0.65976
    0.66525     0.66793     0.67396     0.68024     0.68431     0.69107
    0.69330     0.69658     0.70212     0.71102     0.71185     0.71642
    0.72451     0.72665     0.73548     0.73820     0.74682     0.76407
    0.76891     0.77378     0.77938     0.79166     0.79921     0.81144
    0.82422     0.82556     0.83253     0.84446     0.86568     0.87256
    0.87853     0.88709     0.89406     0.90066     0.90920     0.92413
    0.92827     0.94511     0.95505     0.96557     0.97343     0.97609
    0.98814     0.99950     1.01351     1.02325     1.03130     1.03501
    1.04687     1.05381     1.06945     1.07068     1.07259     1.08538
    1.08904     1.09611     1.10046     1.10505     1.10766     1.11756
    1.12100     1.12391     1.13641     1.14118     1.14450     1.15382
    1.16096     1.16596     1.16990     1.18919     1.19648     1.19973
    1.20609     1.21195     1.22515     1.23388     1.23619     1.24407
    1.24834     1.25255     1.25616     1.26393     1.26403     1.27434
    1.27798     1.29135     1.29376     1.29948     1.31051     1.32310
    1.33534     1.34347     1.34640     1.35205     1.35713     1.36561
    1.37454     1.38191     1.39840     1.40610     1.41589     1.42650
    1.43000     1.44510     1.45149     1.45658     1.46004     1.47350
    1.47821     1.49210     1.49811     1.50677     1.51365     1.51509
    1.52919     1.53451     1.53925     1.54986     1.55689     1.56854
    1.57518     1.58293     1.58488     1.58913     1.60225     1.60420
    1.61068     1.61732     1.62246     1.62537     1.62720     1.63484
    1.63681     1.64251     1.64587     1.65379     1.65680     1.66910
    1.67521     1.67724     1.68353     1.68773     1.69480     1.70032
    1.70539     1.71120     1.71664     1.72207     1.72582     1.73476
    1.73795     1.74042     1.74778     1.75192     1.75580     1.76792
    1.77196     1.77967     1.78835     1.78956     1.79854     1.80139
    1.80753     1.81733     1.82240     1.83132     1.84226     1.84827
    1.85654     1.86013     1.87223     1.87499     1.88259     1.89149
    1.89516     1.90675     1.91439     1.92486     1.92615     1.93019
    1.93572     1.94929     1.95898     1.96980     1.97823     1.98852
    1.99245     1.99854     2.00061     2.01604     2.02373     2.02970
    2.03475     2.03776     2.05182     2.05329     2.05593     2.06524
    2.07314     2.09099     2.10158     2.11517     2.12644     2.13963
    2.14563     2.14869     2.15609     2.17163     2.17839     2.19514
    2.19776     2.20847     2.21713     2.22181     2.22622     2.24820
    2.25620     2.26183     2.26934     2.28574     2.29342     2.30170
    2.30654     2.31699     2.31993     2.33880     2.34921     2.35540
    2.36946     2.38574     2.39144     2.40823     2.43404     2.45297
    2.46273     2.47091     2.47257     2.47986     2.49476     2.50134
    2.51310     2.52314     2.52393     2.54505     2.55099     2.56638
    2.57599     2.58281     2.59860     2.60824     2.63202     2.64082
    2.64380     2.64785     2.66074     2.67402     2.67647     2.68237
    2.68781     2.70194     2.70381     2.71576     2.72032     2.72725
    2.73150     2.73536     2.74690     2.75261     2.75956     2.76973
    2.78233     2.80028     2.80638     2.81422     2.82621     2.86134
    2.87172     2.90498     2.92070     2.92240     2.93982     2.94564
    2.96694     2.96861     2.98464     2.99146     3.01863     3.04021
    3.06347     3.06746     3.08281     3.09042     3.09347     3.10072
    3.10982     3.12895     3.13819     3.14140     3.14801     3.17320
    3.18820     3.19879     3.21066     3.21588     3.25904     3.31422
    3.32824     3.32915     3.34405     3.35603     3.36652     3.39739
    3.42887     3.43260     3.43983     3.45256     3.45891     3.47214
    3.48101     3.50186     3.50917     3.51585     3.53022     3.54434
    3.58667     3.60659     3.62078     3.69941     3.74571     3.79416
 --------------------------------------------------------------
 
          Ground-State Mulliken Net Atomic Charges

     Atom                 Charge (a.u.)    Spin (a.u.)
  --------------------------------------------------------
      1 C                     0.026196       0.000705
      2 C                     0.135270       0.000449
      3 N                    -0.203527       0.005235
      4 O                    -0.369434       0.001192
      5 C                     0.088307       0.007857
      6 C                     0.015151      -0.000225
      7 C                     0.071436       0.004352
      8 C                     0.274518       0.004577
      9 O                    -0.500263       0.179947
     10 H                     0.016780      -0.000260
     11 H                     0.012312       0.000410
     12 H                     0.014647       0.000313
     13 H                     0.036984       0.000321
     14 C                     0.216241       0.000251
     15 O                    -0.324602      -0.000152
     16 N                    -0.152705       0.000174
     17 C                     0.004911       0.000425
     18 H                     0.124284      -0.000023
     19 C                     0.120929      -0.000055
     20 C                     0.112527       0.002631
     21 O                    -0.305303       0.000019
     22 C                     0.204100       0.000102
     23 C                     0.086267       0.004141
     24 O                    -0.302363       0.000215
     25 C                    -0.105763       0.003956
     26 C                     0.260323       0.005090
     27 O                    -0.446247       0.072119
     28 C                     0.135246       0.004018
     29 C                     0.151461       0.003215
     30 O                    -0.365499       0.013000
     31 O                    -0.268856       0.058156
     32 H                     0.035042       0.000081
     33 H                     0.026922      -0.000014
     34 H                     0.075898       0.000348
     35 H                     0.043122       0.000053
     36 H                     0.022156      -0.000120
     37 H                     0.039593       0.000172
     38 H                     0.006113       0.001514
     39 O                    -0.416343       0.110008
     40 O                    -0.369008       0.020224
     41 H                     0.024601       0.000098
     42 H                     0.078450       0.000930
     43 H                     0.021720      -0.000039
     44 H                     0.022124       0.000183
     45 O                    -0.367866       0.012424
     46 O                    -0.433248       0.075389
     47 H                     0.021922       0.001834
     48 Fe                    0.494979       4.181978
     49 O                    -0.513745       0.222866
     50 H                     0.207430      -0.000417
     51 H                     0.216810       0.000334
  --------------------------------------------------------
  Sum of atomic charges =    -2.000000
  Sum of spin   charges =     5.000000

 -----------------------------------------------------------------
                    Cartesian Multipole Moments
 -----------------------------------------------------------------
    Charge (ESU x 10^10)
                -9.6064
    Dipole Moment (Debye)
         X      17.1715      Y      16.4808      Z      -1.6998
       Tot      23.8614
    Quadrupole Moments (Debye-Ang)
        XX    -336.8639     XY     -34.3512     YY    -236.5952
        XZ     -12.0673     YZ      47.6385     ZZ    -203.5779
    Octopole Moments (Debye-Ang^2)
       XXX    2392.1483    XXY     449.2324    XYY     510.6379
       YYY     639.7623    XXZ    -447.6287    XYZ     -56.5962
       YYZ    -403.6378    XZZ     443.8275    YZZ     358.1317
       ZZZ   -1023.7133
    Hexadecapole Moments (Debye-Ang^3)
      XXXX  -23173.1325   XXXY   -3709.5977   XXYY   -3804.3946
      XYYY   -2011.6667   YYYY   -6047.7976   XXXZ    3995.4103
      XXYZ     867.6885   XYYZ     788.3757   YYYZ    1101.5471
      XXZZ   -3852.4533   XYZZ    -945.0175   YYZZ   -2127.2886
      XZZZ    2358.8513   YZZZ    1357.4959   ZZZZ   -5571.1859
 -----------------------------------------------------------------
 Calculating analytic gradient of the SCF energy
 Gradient of SCF Energy
            1           2           3           4           5           6
    1  -0.0048869  -0.0689299  -0.0271703   0.0940503   0.0075692  -0.0198789
    2   0.0022536   0.0248536  -0.0093685  -0.0293810  -0.0175966   0.0134101
    3  -0.0161895   0.0332267  -0.0029799  -0.0413019   0.0018906   0.0204721
            7           8           9          10          11          12
    1   0.0078266  -0.0739085   0.0132648  -0.0212995  -0.0080573   0.0269834
    2  -0.0214606   0.0187459   0.0102974   0.0264922   0.0271873   0.0344736
    3  -0.0035627  -0.1088177  -0.0297095   0.0432178  -0.0401952  -0.0120846
           13          14          15          16          17          18
    1   0.0127919   0.0117912  -0.0065002  -0.0114702   0.0208649   0.0092799
    2  -0.0111644   0.0215546  -0.0110179  -0.0259523  -0.0151864   0.0012921
    3   0.0477851  -0.0760339   0.0879571   0.0204341   0.0096186  -0.0368039
           19          20          21          22          23          24
    1  -0.0021553  -0.0000620   0.0273250   0.0195124   0.0099145  -0.0210646
    2   0.0165366  -0.0168242  -0.0331013   0.0236138   0.0074824  -0.0201018
    3  -0.0217256   0.0311791  -0.0015879  -0.1119038   0.0073958   0.1275058
           25          26          27          28          29          30
    1   0.0338632   0.1128900   0.0253291   0.0146776   0.0644755  -0.0929195
    2   0.0282576  -0.0001800   0.0316876   0.0052685  -0.0689881   0.0765136
    3   0.0264702  -0.0653240   0.0097389   0.0200066   0.0366830  -0.0521431
           31          32          33          34          35          36
    1   0.0480930   0.0109141   0.0100027  -0.0085208  -0.0148897   0.0029955
    2   0.0501538  -0.0291967  -0.0049888   0.0438233  -0.0218741  -0.0161743
    3   0.0250194  -0.0145406   0.0465848  -0.0029986  -0.0266859  -0.0416387
           37          38          39          40          41          42
    1   0.0217283  -0.0491489  -0.0343461   0.1060278   0.0375502  -0.0516173
    2  -0.0130497  -0.0137830  -0.0142540  -0.0132987  -0.0157046   0.0164593
    3  -0.0425791  -0.0036705   0.0434056   0.1003822  -0.0124700   0.0119363
           43          44          45          46          47          48
    1   0.0216863  -0.0005738  -0.1348092   0.0133105  -0.0474838  -0.0383018
    2   0.0333942  -0.0265375  -0.0231416   0.0365576  -0.0099930   0.0034045
    3  -0.0181824  -0.0243442   0.0435109   0.0413960   0.0129285  -0.0040044
           49          50          51
    1  -0.0124979  -0.0116886  -0.0225373
    2  -0.0275823  -0.0058260  -0.0379857
    3  -0.0211085  -0.0383641   0.0222052
 Max gradient component =       1.348E-01
 RMS gradient           =       3.938E-02
 Computing fast CPCM-SWIG gradient
 Updating gradient with PCM contributions...
 -- total gradient after adding PCM contribution --
---------------------------------------------------
  Atom         X              Y              Z     
---------------------------------------------------
   1      -0.006622      -0.004688      -0.007840
   2       0.003987      -0.006210      -0.002626
   3       0.002372       0.000920      -0.004312
   4      -0.015564       0.008478       0.008375
   5      -0.001493       0.002109      -0.002940
   6      -0.007343       0.006119       0.002554
   7       0.003986      -0.008397      -0.001676
   8      -0.010558      -0.005121       0.013402
   9       0.024126       0.002014       0.005414
  10      -0.001554       0.002875       0.003073
  11      -0.001304       0.003050      -0.002893
  12       0.003571       0.003622      -0.000946
  13       0.004218       0.000281       0.003053
  14      -0.002486      -0.004885       0.016433
  15       0.009286      -0.001331      -0.025246
  16      -0.004618      -0.006647       0.009402
  17       0.006496      -0.001783       0.007229
  18      -0.000409       0.001176       0.001319
  19      -0.004732       0.012027      -0.006628
  20       0.003434      -0.007255       0.018129
  21      -0.008196       0.012799      -0.005212
  22       0.008389      -0.007434       0.014259
  23       0.007211       0.003436       0.004207
  24       0.004066      -0.005866      -0.025142
  25       0.007749       0.000509       0.002612
  26       0.001149       0.010291       0.013777
  27      -0.026461      -0.002812      -0.022684
  28       0.005860       0.007538       0.005145
  29       0.005911       0.012485       0.000518
  30       0.015174      -0.010939       0.007447
  31      -0.016874       0.003230       0.000593
  32       0.001882      -0.003417      -0.001848
  33       0.002466      -0.001709       0.003479
  34      -0.000921       0.002473      -0.002098
  35      -0.003194      -0.003455      -0.002254
  36      -0.000129      -0.002233      -0.004110
  37       0.000411      -0.000219      -0.003369
  38      -0.004215      -0.001443      -0.001438
  39       0.028879       0.003528       0.005838
  40      -0.018099      -0.000185      -0.011569
  41       0.001875      -0.002260      -0.000609
  42      -0.005284       0.000828      -0.001991
  43       0.001726       0.003161      -0.002335
  44      -0.000048      -0.002786      -0.003106
  45       0.018847       0.005779      -0.002128
  46      -0.023716      -0.020654      -0.004796
  47      -0.002847      -0.002996       0.000173
  48      -0.002143       0.004163      -0.000247
  49      -0.021446      -0.008868      -0.003915
  50       0.006410      -0.003974       0.022349
  51       0.010775       0.014673      -0.014820
---------------------------------------------------
 Number of fixed atoms: 0
 Gradient time:  CPU 3688.77 s  wall 313.14 s

 *****************************************************
             Starting BFGS Algorithm
 *****************************************************
            LIBOPT3 RUN PARAMETERS

  Geometry Optimization Coordinates :
	Delocalized Natural Internal Coordinates

  Step Length Selection Method :
	Eigenvector Following Algorithm

  Step Length Limiter :
	Root-Mean-Square of Gradient

  Convergence Criteria :
	Max Gradient Component    	3.00000000e-04
	Max Displacement Component	1.20000000e-03
	Absolute Energy Difference	1.00000000e-06

  Initial Hessian :
	Approximate Hessian - Model Internal Coordinate

  Type of Verification :
	Verify with final updated Hessian
 *****************************************************

	OPTIMIZATION CYCLE:	1

 Scaling Magnitude of Eigenvalues
 	Minimum: -25.00000000	 Maximum: 25.00000000
 147 Hessian Eigenvalues to form next step
   0.00200000   0.00254735   0.00386791   0.00460336   0.00506403
   0.00552518   0.00560135   0.00641517   0.00649545   0.00673801
   0.00768219   0.00788449   0.00849758   0.00863362   0.00949201
   0.00993043   0.01036093   0.01142203   0.01385658   0.01524853
   0.01656120   0.01861829   0.02238139   0.02287767   0.02519277
   0.03268279   0.03415660   0.03709202   0.04050119   0.04285282
   0.04568315   0.04699491   0.04773311   0.05023990   0.05111447
   0.05210545   0.05393058   0.05424658   0.05526751   0.05538033
   0.05569924   0.05813257   0.05862957   0.06053072   0.06361975
   0.06828601   0.06990959   0.07174204   0.07751369   0.08108849
   0.08207565   0.08422790   0.08573487   0.08751156   0.09100702
   0.09232507   0.09384584   0.09479396   0.10056076   0.10262457
   0.10432485   0.10813490   0.10984798   0.11300869   0.11844151
   0.12994787   0.13105873   0.13605405   0.14235901   0.15307291
   0.15523857   0.15965032   0.16000000   0.16000000   0.16000000
   0.16000000   0.16000000   0.16378118   0.16859518   0.17388921
   0.18504839   0.18615941   0.18885977   0.19199833   0.20064273
   0.20775647   0.21082325   0.22175929   0.22461804   0.22774012
   0.23847118   0.24530122   0.24604820   0.24868977   0.24948731
   0.24996390   0.24997376   0.24999588   0.25525096   0.25807689
   0.25823084   0.27225313   0.27339598   0.27406176   0.27573992
   0.27639980   0.27697743   0.28122864   0.28922992   0.30491493
   0.30701338   0.32781350   0.33822572   0.33955597   0.34206140
   0.34301851   0.34342821   0.34481059   0.34486066   0.34531592
   0.34562214   0.34567389   0.34685121   0.34689791   0.34709392
   0.34768876   0.34828886   0.34915699   0.34917088   0.35957001
   0.36508706   0.41878667   0.44552230   0.45249357   0.46393565
   0.47759724   0.48942446   0.51780021   0.52723932   0.55955508
   0.56942256   0.83328933   0.84180199   0.84710868   0.84875111
   0.85079342   0.90254308

 Minimum Search taking a RFO step
 Searching for Lambda that minimizes along all modes
	Value of Lambda   -0.02833435
	Norm  of Stepsize  0.42103780
	RMS   of Stepsize  0.03472661

	Performing Iterative Coordinate Back-Transformation

	  Starting from Previous Position

	  iter:	0	rms: 1.0011616796e-01	maxdev: 4.1232884914e-01
	  iter:	1	rms: 3.5355035688e-03	maxdev: 1.6193411221e-02
	  iter:	2	rms: 4.8576447846e-06	maxdev: 3.1722836367e-05
	  iter:	3	rms: 2.9556967937e-11	maxdev: 2.8451566038e-10	 Success!

	Finished Iterative Coordinate Back-Transformation
 ----------------------------------------------------------------
             Standard Nuclear Orientation (Angstroms)
    I     Atom           X                Y                Z
 ----------------------------------------------------------------
    1      C      -6.6401783724    -3.6734872382     1.2149720431
    2      C      -6.7798229091    -2.4181184511     2.0647639896
    3      N      -5.5497406802    -1.8390035214     2.1997115331
    4      O      -7.8227927151    -1.9858708539     2.5664892366
    5      C      -4.4672056798    -2.5836357984     1.4582624543
    6      C      -5.3928656826    -0.6964225902     3.1081928665
    7      C      -5.1414616897    -3.9792926860     1.3179276490
    8      C      -4.2491873783    -1.9874791514     0.0181473396
    9      O      -3.2717963540    -2.6285309401     2.1431234716
   10      H      -4.7385608961    -4.5457055125     0.4674844779
   11      H      -4.9271516622    -4.5236655170     2.2510418193
   12      H      -7.3063766210    -4.4692331685     1.5745847036
   13      H      -6.8988625902    -3.4011133768     0.1832588572
   14      C      -4.7458431871     0.5228988673     2.4351233702
   15      O      -4.4543132451     0.5434960273     1.2369669385
   16      N      -4.5204098131     1.5994867597     3.2353208553
   17      C      -4.6747706917    -1.0969808743     4.4195226586
   18      H      -4.7890011312     1.5774990123     4.2116618217
   19      C      -3.7870801565     2.7610560126     2.7332944850
   20      C      -2.2629937008     2.5884626701     2.9155359420
   21      O      -1.6222036570     2.9808416189     1.6503006724
   22      C      -0.5578584504     2.2768933971     1.1719089055
   23      C       0.3504285088     1.5104555979     2.1178608634
   24      O      -0.3382911454     2.3596804258    -0.0226686541
   25      C       0.0999364512    -0.0253596032     2.0011354332
   26      C       0.7143894418    -0.5801093454     0.6708284140
   27      O      -0.3451097298    -2.8235577061     2.5600110319
   28      C       0.7907863003    -0.7617217720     3.1766197931
   29      C       0.7192502462    -2.2956760760     3.1176448064
   30      O       1.6237141717    -2.9760739491     3.6067535003
   31      O      -0.9771933557    -3.8951706650     0.2713824145
   32      H      -4.1592505094     3.6607870541     3.2389101130
   33      H      -3.9887367301     2.8305663870     1.6578296393
   34      H      -2.0442777418     1.5301663843     3.0804117272
   35      H      -1.8568055715     3.2208474144     3.7177607402
   36      H       0.2098664364     1.8340219875     3.1564230046
   37      H       0.2913714415    -0.4466933262     4.1085100562
   38      H       1.8502710318    -0.4783140495     3.2393520794
   39      O      -3.0026163335    -1.7317032131    -0.2798977621
   40      O      -5.1802352152    -1.8702829521    -0.7813900808
   41      H      -6.4271842283    -0.4125262824     3.3574271966
   42      H      -3.6385418773    -1.3820145071     4.2064436922
   43      H      -5.1960309322    -1.9578190219     4.8649076422
   44      H      -4.6957841940    -0.2763360238     5.1517127030
   45      O       1.8816119653    -0.3292599774     0.3577299819
   46      O      -0.0836574846    -1.3703083415     0.0045924927
   47      H       1.3850966433     1.6998570686     1.8055887981
   48      Fe     -1.7218414039    -1.9331948327     1.2267316536
   49      O      -1.2870420505    -0.2673454127     2.0333446125
   50      H      -0.4952225712    -4.0120833732     1.1315257382
   51      H      -0.3370943000    -3.3550066750    -0.2427976209
 ----------------------------------------------------------------
 Nuclear Repulsion Energy =        4465.48302133 hartrees
 There are      133 alpha and      128 beta electrons
 No default van der Waals radius is available for Z = 26
	Found R = 2.4400 A in the $van_der_waals section
 Discretize the solute cavity surface with Lebedev spheres
	Using 110 Lebedev grid points for each H atom
	Using 194 Lebedev grid points for other atoms
	Atomic van der Waals radii (Bondi set) will be scaled by 1.20
 Using smooth SwiG surface discretization
 Remove points where switching function is < 1.0e-08
 Keep 3045 surface tesserae and discard 5253 interior tesserae
 Molecular Surface Area = 408.239 Angst**2

 Applying Cartesian multipole field
    Component          Value
    ---------          -----
     (2,0,0)        1.00000E-12
     (0,2,0)        2.00000E-11
     (0,0,2)       -3.00000E-11
 Nucleus-field energy     =-2.5118003511e-08 hartrees
 Read the previous MOs as SCF guess

 -----------------------------------------------------------------------
  General SCF calculation program by
  Eric Jon Sundstrom, Paul Horn, Yuezhi Mao, Dmitri Zuev, Alec White,
  David Stuck, Shaama M.S., Shane Yost, Joonho Lee, David Small,
  Daniel Levine, Susi Lehtola, Hugh Burton, Evgeny Epifanovsky,
  Bang C. Huynh
 -----------------------------------------------------------------------
 Requested basis set is non-standard
 There are 258 shells and 572 basis functions
 Exchange:     0.2000 Hartree-Fock + 0.0800 Slater + 0.7200 B88
 Correlation:  0.1900 VWN1RPA + 0.8100 LYP
 Using SG-1 standard quadrature grid
 A cutoff of  1.0D-12 yielded  29389 shell pairs
 There are    134625 function pairs (    150679 Cartesian)
 Smallest overlap matrix eigenvalue = 2.76E-04
 A unrestricted SCF calculation will be
 performed using DIIS
 SCF converges when DIIS error is below 1.0e-08
 ---------------------------------------
  Cycle       Energy         DIIS error
 ---------------------------------------
    1   -2973.0878594663      6.53e-04  
    2   -2972.9880325328      1.40e-04  
    3   -2972.9849085252      2.20e-04  
    4   -2972.9906059274      4.68e-05  
    5   -2972.9907738933      2.54e-05  
    6   -2972.9908294561      1.23e-05  
    7   -2972.9908465542      2.79e-06  
    8   -2972.9908475346      1.08e-06  
    9   -2972.9908477062      4.69e-07  
   10   -2972.9908477387      2.33e-07  
   11   -2972.9908477494      1.05e-07  
   12   -2972.9908477515      3.98e-08  
   13   -2972.9908477518      1.57e-08  
   14   -2972.9908477518      6.51e-09  Convergence criterion met
 ---------------------------------------
 SCF time:   CPU 19665.59s  wall 1417.00s 
<S^2> =          8.757238948

************** Final PCM Free Energy Summary **************
 G_electrostatic  =      -0.29224509 hartree =    -183.38656389 kcal/mol
 G_cavitation     =       0.00000000 hartree =       0.00000000 kcal/mol
 G_dispersion     =       0.00000000 hartree =       0.00000000 kcal/mol
 G_repulsion      =       0.00000000 hartree =       0.00000000 kcal/mol
 --------------------------------------------------
 Non-electrostatic Free Energy =       0.00000000 hartree =       0.00000000 kcal/mol
 Total                         =      -0.29224509 hartree =    -183.38656389 kcal/mol
 --------------------------------------------------
 SCF Energy (H0 + V/2)                       =   -2972.99084775 
 Solute Internal Energy (H0)                 =   -2972.69860266 
 Total Free Energy (H0 + V/2 + non-elec)     =   -2972.99084775 hartree
                                             = -1865579.92326700 kcal/mol
***********************************************************

 SCF   energy = -2972.99084775
 Total energy = -2972.99084775
 
 --------------------------------------------------------------
 
                    Orbital Energies (a.u.)
 --------------------------------------------------------------
 
 Alpha MOs
 -- Occupied --
 -256.13365   -30.13145   -25.98499   -25.98380   -25.98084   -19.17147
  -19.15163   -19.12083   -19.11034   -19.10723   -19.10565   -19.10557
  -19.10121   -19.09436   -19.09397   -19.09149   -19.09012   -19.08818
  -14.34951   -14.34441   -10.31190   -10.28288   -10.28012   -10.27503
  -10.27426   -10.27413   -10.25937   -10.23382   -10.23335   -10.22686
  -10.21958   -10.18821   -10.18072   -10.17878   -10.17770   -10.17612
   -3.61377    -2.39098    -2.38814    -2.38321    -1.08618    -1.04313
   -1.04033    -1.03267    -1.03255    -1.02385    -1.01306    -1.00542
   -0.97841    -0.96753    -0.95121    -0.94575    -0.94346    -0.91663
   -0.90998    -0.80193    -0.76974    -0.75820    -0.73062    -0.71764
   -0.67784    -0.65963    -0.63370    -0.61762    -0.60097    -0.57893
   -0.55671    -0.55528    -0.53992    -0.53384    -0.53046    -0.50404
   -0.49715    -0.49353    -0.48780    -0.48012    -0.47941    -0.46873
   -0.46650    -0.45636    -0.45196    -0.45118    -0.44499    -0.43915
   -0.43690    -0.43169    -0.42921    -0.42479    -0.42076    -0.41563
   -0.40807    -0.40618    -0.40486    -0.40336    -0.39893    -0.39882
   -0.39582    -0.39152    -0.38881    -0.38486    -0.38270    -0.37462
   -0.37340    -0.36959    -0.36804    -0.36280    -0.36038    -0.35844
   -0.35424    -0.34985    -0.34290    -0.33416    -0.33159    -0.32240
   -0.29595    -0.29181    -0.28530    -0.28339    -0.26975    -0.26851
   -0.26417    -0.26329    -0.26005    -0.25916    -0.25227    -0.25123
   -0.24703    -0.24008    -0.23670    -0.23087    -0.22297    -0.21336
   -0.20801
 -- Virtual --
    0.00424     0.02481     0.02693     0.03158     0.03730     0.04903
    0.04936     0.05936     0.06895     0.07600     0.08677     0.09235
    0.10141     0.10712     0.10970     0.11921     0.12472     0.13041
    0.13628     0.14333     0.14576     0.15233     0.15978     0.16400
    0.16933     0.17645     0.17754     0.18246     0.18712     0.18986
    0.19439     0.19964     0.20936     0.21871     0.22421     0.22748
    0.23373     0.23771     0.24558     0.24863     0.25382     0.26359
    0.26460     0.27504     0.28277     0.28656     0.28881     0.29781
    0.30614     0.30934     0.31947     0.32352     0.34274     0.34533
    0.35485     0.36056     0.36541     0.37795     0.38199     0.38572
    0.39711     0.39814     0.41967     0.42503     0.43704     0.44318
    0.44999     0.45181     0.46025     0.46373     0.47016     0.47360
    0.48330     0.49046     0.50003     0.50812     0.51038     0.51352
    0.51658     0.52018     0.52879     0.53113     0.53843     0.54858
    0.55298     0.55969     0.56901     0.57323     0.57619     0.58515
    0.59108     0.59220     0.59861     0.60470     0.60725     0.61340
    0.61982     0.62126     0.62502     0.62923     0.63616     0.63767
    0.64353     0.64525     0.64792     0.65201     0.65414     0.65731
    0.66033     0.66316     0.66521     0.67040     0.67560     0.67986
    0.68286     0.68870     0.69556     0.69960     0.70625     0.71056
    0.71548     0.72287     0.72440     0.73229     0.73573     0.74274
    0.76416     0.76708     0.77287     0.77448     0.78818     0.79667
    0.80925     0.81511     0.81903     0.82605     0.84075     0.85643
    0.86050     0.87656     0.87922     0.88219     0.88943     0.89682
    0.91324     0.91807     0.93569     0.94551     0.95841     0.96714
    0.96979     0.98463     0.98752     1.00680     1.01657     1.02823
    1.03273     1.03644     1.04573     1.05918     1.06209     1.06261
    1.07501     1.08002     1.08598     1.08976     1.09412     1.09990
    1.11111     1.11295     1.11478     1.12676     1.13386     1.13691
    1.14460     1.14866     1.15599     1.16162     1.17394     1.18316
    1.18857     1.19395     1.19861     1.21274     1.21796     1.22290
    1.23337     1.24078     1.24450     1.24836     1.25483     1.25642
    1.25925     1.27066     1.28302     1.28426     1.29891     1.30088
    1.30394     1.31507     1.31738     1.32986     1.33677     1.34687
    1.35426     1.35984     1.36511     1.36900     1.38304     1.39647
    1.40665     1.42076     1.42577     1.43843     1.44421     1.44646
    1.46015     1.46311     1.47821     1.48233     1.49340     1.49736
    1.50330     1.51423     1.51815     1.53204     1.53672     1.54669
    1.55689     1.55887     1.56381     1.57804     1.58163     1.58736
    1.59329     1.60430     1.60820     1.60966     1.61356     1.62155
    1.62727     1.63340     1.63716     1.64074     1.64366     1.64826
    1.65870     1.66854     1.67394     1.68118     1.68175     1.68744
    1.69183     1.69647     1.70203     1.70676     1.71517     1.71923
    1.73027     1.73233     1.73683     1.74054     1.74625     1.74710
    1.75721     1.76132     1.76381     1.77179     1.78196     1.78655
    1.79410     1.80187     1.80915     1.81791     1.82716     1.83273
    1.84245     1.84891     1.85884     1.86483     1.86888     1.87307
    1.88543     1.88804     1.89311     1.90684     1.91406     1.92203
    1.92657     1.93530     1.94420     1.95554     1.96021     1.96821
    1.97567     1.97918     1.98841     1.99322     2.00965     2.01731
    2.02635     2.02844     2.03962     2.04043     2.04748     2.05921
    2.06411     2.07142     2.08305     2.09183     2.10491     2.11625
    2.12861     2.13610     2.13844     2.14206     2.15511     2.16708
    2.17396     2.17997     2.18850     2.20664     2.21167     2.21467
    2.23121     2.23891     2.25642     2.25996     2.27299     2.28179
    2.28386     2.29538     2.30564     2.31269     2.32537     2.33167
    2.34572     2.36057     2.37340     2.37945     2.39788     2.40351
    2.43756     2.44983     2.45136     2.45500     2.46633     2.48314
    2.49062     2.49600     2.50990     2.51215     2.53655     2.54272
    2.54387     2.55396     2.57045     2.58899     2.59094     2.62665
    2.63403     2.63626     2.64079     2.65292     2.66803     2.67265
    2.67468     2.68044     2.69461     2.69790     2.70503     2.71627
    2.71973     2.72660     2.73006     2.73458     2.74418     2.74606
    2.75178     2.77041     2.78258     2.79439     2.79991     2.81305
    2.85853     2.88258     2.88531     2.89309     2.93004     2.94578
    2.94979     2.96396     2.96937     2.98241     2.98522     3.00618
    3.01603     3.01886     3.03216     3.05133     3.06558     3.07607
    3.08897     3.09486     3.10892     3.11401     3.12480     3.12869
    3.14489     3.14952     3.17841     3.18810     3.21054     3.21188
    3.22191     3.25188     3.34111     3.35177     3.37752     3.38738
    3.40180     3.41452     3.44290     3.45188     3.45562     3.46432
    3.48628     3.49542     3.50539     3.51201     3.51812     3.52559
    3.54305     3.55238     3.57082     3.60074     3.60637     3.65030
    3.76193
 
 Beta MOs
 -- Occupied --
 -256.13182   -30.03873   -25.90723   -25.90602   -25.90460   -19.17147
  -19.14993   -19.12083   -19.10658   -19.10566   -19.10451   -19.10281
  -19.10118   -19.09108   -19.08953   -19.08853   -19.08778   -19.08683
  -14.34951   -14.34424   -10.31190   -10.28288   -10.28011   -10.27498
  -10.27420   -10.27412   -10.25933   -10.23380   -10.23331   -10.22686
  -10.21958   -10.18807   -10.18070   -10.17864   -10.17755   -10.17611
   -3.39787    -2.16274    -2.15963    -2.15777    -1.08616    -1.04001
   -1.03751    -1.03168    -1.03022    -1.02350    -1.00970    -1.00540
   -0.97039    -0.95753    -0.94579    -0.94111    -0.93677    -0.91663
   -0.90598    -0.80153    -0.76704    -0.75769    -0.73047    -0.71712
   -0.67545    -0.65956    -0.63356    -0.61554    -0.59998    -0.57888
   -0.55558    -0.55341    -0.53585    -0.53238    -0.52621    -0.49569
   -0.49070    -0.48524    -0.48243    -0.47672    -0.47287    -0.46633
   -0.46195    -0.45007    -0.44777    -0.44142    -0.43663    -0.43496
   -0.42909    -0.42656    -0.42460    -0.41682    -0.41390    -0.40892
   -0.40314    -0.39998    -0.39663    -0.39144    -0.38820    -0.38570
   -0.38292    -0.37389    -0.37243    -0.36953    -0.36815    -0.36296
   -0.36062    -0.35881    -0.35606    -0.34393    -0.33458    -0.33442
   -0.32993    -0.29592    -0.29424    -0.29320    -0.28835    -0.27856
   -0.27353    -0.26750    -0.26703    -0.26279    -0.26094    -0.25636
   -0.25135    -0.24746    -0.24692    -0.24264    -0.23686    -0.23109
   -0.21918    -0.21596
 -- Virtual --
   -0.07364    -0.07004    -0.06397    -0.03330    -0.01881     0.00476
    0.02493     0.02780     0.03302     0.03930     0.05069     0.05207
    0.05979     0.06983     0.07656     0.08728     0.09297     0.10208
    0.10752     0.11008     0.11943     0.12523     0.13073     0.13667
    0.14446     0.14646     0.15369     0.16044     0.16451     0.16995
    0.17717     0.17892     0.18306     0.18784     0.19060     0.19875
    0.20199     0.21117     0.22185     0.22752     0.22977     0.23628
[...]
    3.43988     3.44273     3.45656     3.46473     3.47277     3.47962
    3.49852     3.50297     3.51809     3.53054     3.53951     3.55288
    3.56864     3.60060     3.60584     3.65217     3.74108     3.77218
 --------------------------------------------------------------
 
          Ground-State Mulliken Net Atomic Charges

     Atom                 Charge (a.u.)    Spin (a.u.)
  --------------------------------------------------------
      1 C                     0.024504       0.000498
      2 C                     0.135765       0.000537
      3 N                    -0.205391       0.005169
      4 O                    -0.360605       0.001184
      5 C                     0.091891       0.004977
      6 C                     0.004197      -0.000224
      7 C                     0.061620       0.006319
      8 C                     0.225310       0.003749
      9 O                    -0.487836       0.181495
     10 H                     0.020582      -0.000277
     11 H                     0.016798       0.000192
     12 H                     0.021876       0.000370
     13 H                     0.034876       0.000280
     14 C                     0.200055       0.000277
     15 O                    -0.343573      -0.000287
     16 N                    -0.143281       0.000084
     17 C                     0.005939       0.000383
     18 H                     0.116365      -0.000052
     19 C                     0.095855      -0.000085
     20 C                     0.139197       0.000732
     21 O                    -0.264200       0.000303
     22 C                     0.197561       0.000068
     23 C                     0.068670       0.005727
     24 O                    -0.300947       0.000136
     25 C                    -0.104734       0.001805
     26 C                     0.236617       0.005344
     27 O                    -0.417182       0.078614
     28 C                     0.097738       0.006097
     29 C                     0.147795       0.001718
     30 O                    -0.373579       0.013117
     31 O                    -0.192020       0.039561
     32 H                     0.040613       0.000004
     33 H                     0.029542       0.000030
     34 H                     0.055815       0.000428
     35 H                     0.039295       0.000066
     36 H                     0.021643      -0.000192
     37 H                     0.034870      -0.000008
     38 H                     0.008249       0.001883
     39 O                    -0.390672       0.096082
     40 O                    -0.364394       0.019156
     41 H                     0.032720       0.000038
     42 H                     0.059019       0.000144
     43 H                     0.025916      -0.000013
     44 H                     0.034509       0.000177
     45 O                    -0.371147       0.016146
     46 O                    -0.392941       0.081333
     47 H                     0.016287       0.002110
     48 Fe                    0.459470       4.180157
     49 O                    -0.491687       0.243301
     50 H                     0.196316       0.000065
     51 H                     0.206712       0.001282
  --------------------------------------------------------
  Sum of atomic charges =    -2.000000
  Sum of spin   charges =     5.000000

 -----------------------------------------------------------------
                    Cartesian Multipole Moments
 -----------------------------------------------------------------
    Charge (ESU x 10^10)
                -9.6064
    Dipole Moment (Debye)
         X      19.1522      Y      13.4331      Z      -2.4007
       Tot      23.5163
    Quadrupole Moments (Debye-Ang)
        XX    -352.0602     XY     -27.5881     YY    -219.3312
        XZ     -12.5789     YZ      50.9700     ZZ    -209.0694
    Octopole Moments (Debye-Ang^2)
       XXX    2478.9519    XXY     409.9270    XYY     510.5814
       YYY     581.0489    XXZ    -447.6447    XYZ     -41.9790
       YYZ    -400.6404    XZZ     424.8177    YZZ     369.5994
       ZZZ   -1049.8442
    Hexadecapole Moments (Debye-Ang^3)
      XXXX  -23701.5784   XXXY   -3516.6165   XXYY   -3871.2478
      XYYY   -1978.2198   YYYY   -5748.6983   XXXZ    3943.9653
      XXYZ     758.6399   XYYZ     788.2106   YYYZ    1123.9391
      XXZZ   -3847.6231   XYZZ    -840.3217   YYZZ   -2170.1408
      XZZZ    2232.3065   YZZZ    1425.8698   ZZZZ   -5810.4120
 -----------------------------------------------------------------
 Calculating analytic gradient of the SCF energy
 Gradient of SCF Energy
            1           2           3           4           5           6
    1  -0.0016285  -0.0797047  -0.0293331   0.1172723   0.0132300  -0.0185486
    2   0.0079283   0.0274240  -0.0118516  -0.0320336  -0.0213732   0.0081981
    3  -0.0097808   0.0351284   0.0001150  -0.0445832   0.0114999   0.0151782
            7           8           9          10          11          12
    1   0.0031110  -0.0665481  -0.0044652  -0.0206247  -0.0099078   0.0203647
    2  -0.0170267   0.0305060   0.0062722   0.0227142   0.0242394   0.0313218
    3  -0.0013332  -0.1317717  -0.0358812   0.0395409  -0.0364513  -0.0151683
           13          14          15          16          17          18
    1   0.0144811  -0.0100170   0.0252136  -0.0118947   0.0112076  -0.0042360
    2  -0.0050722   0.0564089  -0.0441795  -0.0259577  -0.0138658   0.0138831
    3   0.0453134  -0.1010430   0.1261956   0.0145772   0.0055975  -0.0434916
           19          20          21          22          23          24
    1  -0.0022560   0.0009854   0.0462294   0.0019054   0.0063725  -0.0220702
    2   0.0115132   0.0007343  -0.0319405   0.0341556   0.0076658  -0.0252234
    3  -0.0101796   0.0195302   0.0131921  -0.1350869   0.0030773   0.1564497
           25          26          27          28          29          30
    1   0.0189029   0.1087100   0.0466739   0.0144925   0.0487667  -0.0942657
    2   0.0280828  -0.0078299   0.0477325   0.0000387  -0.0830750   0.0775093
    3   0.0226093  -0.0910546   0.0262608   0.0191584   0.0521010  -0.0826011
           31          32          33          34          35          36
    1   0.0777877   0.0072379   0.0183907  -0.0177966  -0.0109307   0.0017008
    2   0.0229787  -0.0186947  -0.0184006   0.0301435  -0.0278892  -0.0140673
    3   0.0034814  -0.0210727   0.0349462  -0.0201876  -0.0123280  -0.0383941
           37          38          39          40          41          42
    1   0.0156554  -0.0465235  -0.0675597   0.1251214   0.0396130  -0.0453765
    2  -0.0179860  -0.0087753  -0.0190449  -0.0149582  -0.0165161   0.0121253
    3  -0.0398234   0.0015970   0.0372128   0.1202104  -0.0061236  -0.0004173
           43          44          45          46          47          48
    1   0.0221387   0.0046717  -0.1487737   0.0316480  -0.0439273  -0.0233320
    2   0.0316547  -0.0226455  -0.0340786   0.0583957  -0.0124062  -0.0016428
    3  -0.0113139  -0.0209077   0.0599565   0.0489815   0.0150637   0.0027130
           49          50          51
    1   0.0060745  -0.0323712  -0.0358671
    2  -0.0201643  -0.0018897  -0.0230381
    3  -0.0181084  -0.0520665   0.0494824
 Max gradient component =       1.564E-01
 RMS gradient           =       4.524E-02
 Computing fast CPCM-SWIG gradient
 Updating gradient with PCM contributions...
 -- total gradient after adding PCM contribution --
---------------------------------------------------
  Atom         X              Y              Z     
---------------------------------------------------
   1      -0.000014       0.000014      -0.000012
   2      -0.000007      -0.000000       0.000016
   3      -0.000005       0.000021       0.000003
   4      -0.000003       0.000019      -0.000003
   5      -0.000013      -0.000009       0.000015
   6      -0.000027       0.000002      -0.000000
   7       0.000007       0.000007      -0.000005
   8       0.000017       0.000004      -0.000004
   9      -0.000002       0.000001      -0.000009
  10      -0.000010       0.000006      -0.000006
  11      -0.000009       0.000003      -0.000006
  12      -0.000009       0.000011       0.000001
  13      -0.000004       0.000009       0.000004
  14       0.000051      -0.000017      -0.000001
  15      -0.000011       0.000021       0.000011
  16      -0.000002       0.000012       0.000005
  17       0.000012       0.000003      -0.000004
  18       0.000007       0.000000       0.000003
  19      -0.000002       0.000004       0.000038
  20      -0.000004      -0.000030      -0.000065
  21       0.000001       0.000035       0.000053
  22       0.000046      -0.000029      -0.000045
  23      -0.000004      -0.000013       0.000010
  24      -0.000002      -0.000005       0.000018
  25       0.000035      -0.000011      -0.000006
  26      -0.000029      -0.000001       0.000007
  27      -0.000015       0.000010      -0.000050
  28       0.000002      -0.000014      -0.000010
  29       0.000008      -0.000004       0.000013
  30      -0.000009      -0.000014       0.000001
  31      -0.000023      -0.000049      -0.000002
  32       0.000010       0.000007       0.000010
  33       0.000009       0.000004       0.000011
  34       0.000001      -0.000004       0.000015
  35      -0.000001      -0.000002       0.000012
  36       0.000008      -0.000007      -0.000002
  37       0.000002      -0.000009      -0.000003
  38       0.000001      -0.000012      -0.000003
  39      -0.000016       0.000015       0.000010
  40      -0.000001       0.000014      -0.000007
  41      -0.000001      -0.000004       0.000009
  42      -0.000002       0.000001      -0.000002
  43       0.000002      -0.000000       0.000003
  44      -0.000004      -0.000001      -0.000001
  45       0.000014      -0.000005       0.000002
  46      -0.000004       0.000001      -0.000025
  47       0.000009      -0.000005       0.000005
  48       0.000013      -0.000019      -0.000007
  49      -0.000021       0.000018       0.000014
  50      -0.000002       0.000007      -0.000004
  51      -0.000002       0.000016      -0.000002
---------------------------------------------------
 Number of fixed atoms: 0
 Gradient time:  CPU 3575.38 s  wall 297.77 s

     Step 26	:
        Energy is -2972.9975817166
                            Maximum         Tolerance       Converged?
         Gradient           3.47891618e-05	3.00000000e-04	true
         Displacement       3.32379704e-03	1.20000000e-03	false
         Energy change      4.55103873e-07	1.00000000e-06	true

	 Optimization Converged in 26 cycles

 *****************************************************
             End of BFGS Algorithm
 *****************************************************
		----------------------------------
		   Verification of Optimization
		----------------------------------

 Eigenvalues of Hessian in Optimization Verification
   0.00114999   0.00164009   0.00273228   0.00337466   0.00354836
   0.00488467   0.00531240   0.00578972   0.00632082   0.00702036
   0.00714833   0.00879952   0.01030090   0.01276483   0.01371890
   0.01488379   0.01700297   0.01985792   0.02035264   0.02489233
   0.02734869   0.03162525   0.03229662   0.03548579   0.03719581
   0.03895328   0.04219250   0.04314283   0.04347555   0.04529115
   0.04672971   0.04686207   0.04956319   0.05108531   0.05224790
   0.05308897   0.05327281   0.05458783   0.05518122   0.05578705
   0.05626695   0.05830113   0.05850087   0.06003830   0.06160354
   0.06772608   0.06887244   0.07129441   0.07364106   0.07598978
   0.08021375   0.08240752   0.08501325   0.08564531   0.08846001
   0.09136552   0.09365218   0.09452543   0.09951411   0.10316284
   0.10422413   0.10644481   0.10661411   0.11118411   0.11350933
   0.11527360   0.11617644   0.13154791   0.13389091   0.13719038
   0.14883535   0.15137800   0.15831423   0.15918932   0.15954303
   0.16014750   0.16181030   0.16536456   0.17018252   0.18264480
   0.18390397   0.19147313   0.19416704   0.20044642   0.20465752
   0.21075657   0.22236988   0.22360304   0.22771066   0.24040285
   0.24599898   0.24808803   0.25018448   0.25126082   0.25167657
   0.25537586   0.25858069   0.25923447   0.26218898   0.26899814
   0.27081995   0.27313538   0.27393555   0.27551827   0.27844399
   0.28098611   0.28112298   0.28862108   0.30900676   0.30919653
   0.33244848   0.33821980   0.33931601   0.34003170   0.34198340
   0.34309482   0.34481490   0.34508299   0.34553593   0.34555069
   0.34567190   0.34621466   0.34685988   0.34734866   0.34779275
   0.34857298   0.35049905   0.35178195   0.35734501   0.36642527
   0.37791737   0.41597585   0.44072927   0.45504632   0.46279503
   0.48027586   0.51350771   0.51895934   0.52421023   0.54618664
   0.56648781   0.83417044   0.84098606   0.84566396   0.84751148
   0.84876629   0.90406245

 Found a minimum
		---------------------------------
		       End of Verification
		---------------------------------

 Final energy is -2972.997581716604

	******************************
	**  OPTIMIZATION CONVERGED  **
	******************************
 ----------------------------------------------------------------
             Standard Nuclear Orientation (Angstroms)
    I     Atom           X                Y                Z
 ----------------------------------------------------------------
    1      C      -6.5269721800    -3.7349177649     1.1346769122
    2      C      -6.7880609445    -2.4686066334     1.9361987044
    3      N      -5.6043309763    -1.8127193143     2.1145046678
    4      O      -7.8819175644    -2.0959943643     2.3699675106
    5      C      -4.4463829172    -2.4798787026     1.4430163146
    6      C      -5.5358062436    -0.6880434834     3.0436766476
    7      C      -5.0110426890    -3.9172626386     1.2472306156
    8      C      -4.1916693521    -1.8648785251     0.0210921489
    9      O      -3.3029082669    -2.4275358224     2.2010566689
   10      H      -4.5558657307    -4.4220972695     0.3837407760
   11      H      -4.7531349211    -4.4801669385     2.1584675396
   12      H      -7.1231141699    -4.5642486272     1.5427880790
   13      H      -6.8423268394    -3.5587893966     0.0952838444
   14      C      -4.8355874085     0.5465649116     2.4429733191
   15      O      -4.9542190047     0.8357607223     1.2505875641
   16      N      -4.1897703629     1.3409295327     3.3350195421
   17      C      -5.0726707018    -1.1267228650     4.4434534249
   18      H      -4.1146812237     1.0312602569     4.2960121508
   19      C      -3.6541564975     2.6608619400     3.0330333107
   20      C      -2.1293712482     2.7122451528     2.8854991341
   21      O      -1.7938796227     2.6519006804     1.4802528626
   22      C      -0.6174032161     2.1733026886     1.0141467712
   23      C       0.3957352686     1.5471197712     1.9526768176
   24      O      -0.4392195048     2.2269075495    -0.1896920532
   25      C       0.1641044237     0.0093786096     1.9426085360
   26      C       0.7185988407    -0.5974559243     0.6079674746
   27      O      -0.2924554722    -2.7751916383     2.6527211687
   28      C       0.9120255710    -0.6794187701     3.1065365553
   29      C       0.7247709282    -2.2062897218     3.2376623787
   30      O       1.5405344041    -2.8311814425     3.9251506872
   31      O      -1.1916260218    -4.0278931885     0.5109060879
   32      H      -3.9462070353     3.3363249824     3.8516225437
   33      H      -4.1214901034     3.0199887293     2.1058088764
   34      H      -1.6782573031     1.8739270331     3.4278986154
   35      H      -1.7445950273     3.6660391812     3.2806036904
   36      H       0.3234705930     1.9318236713     2.9777607877
   37      H       0.5548997951    -0.2376020319     4.0539810123
   38      H       1.9942306900    -0.4871776165     3.0482238034
   39      O      -2.9475566033    -1.5880354936    -0.2220102438
   40      O      -5.1124908142    -1.7556221189    -0.7932044551
   41      H      -6.5883820782    -0.3663920341     3.1334078092
   42      H      -4.0098565784    -1.4029986545     4.4509254103
   43      H      -5.6616209434    -2.0021657165     4.7553818825
   44      H      -5.2564430046    -0.3362409961     5.1892850133
   45      O       1.8483520776    -0.2983059458     0.2030952573
   46      O      -0.0766174123    -1.4518281110     0.0452425192
   47      H       1.3952031372     1.7647988936     1.5551942495
   48      Fe     -1.6574012999    -1.9227691986     1.3202353532
   49      O      -1.2119320452    -0.2330282618     2.0606871338
   50      H      -0.5883571950    -4.1684432515     1.2701558318
   51      H      -0.5808152053    -3.8313119445    -0.2212311524
 ----------------------------------------------------------------
 Nuclear Repulsion Energy =        4458.24643672 hartrees
 There are      133 alpha and      128 beta electrons

Z-matrix Print:
$molecule
-2 6
Fe
O  1 1.897877
C  2 1.402205 1 110.573084
C  3 1.545495 2 109.538402 1 -83.040186 0
H  4 1.100693 3 110.981659 2 -178.861303 0
H  4 1.104713 3 108.131987 2 -61.714518 0
C  4 1.543889 3 116.489624 2 58.052664 0
O  7 1.236366 4 117.843339 3 162.558373 0
O  7 1.304053 4 119.206677 3 -19.031906 0
C  3 1.555121 2 108.455351 1 155.269646 0
H  10 1.097277 3 110.054839 2 77.606336 0
H  10 1.097412 3 109.235312 2 -162.518962 0
C  10 1.516375 3 107.746655 2 -45.905562 0
O  13 1.218134 10 122.147930 3 -82.640924 0
O  13 1.352926 10 120.920087 3 94.624979 0
C  15 1.445999 13 123.457941 10 5.414763 0
H  16 1.095663 15 110.709738 13 -33.184893 0
H  16 1.101764 15 107.674185 13 87.022923 0
C  16 1.532768 15 108.841252 13 -153.773846 0
H  19 1.098689 16 109.326503 15 -24.183976 0
H  19 1.100742 16 108.357762 15 -142.034614 0
N  19 1.456125 16 114.599274 15 97.654883 0
H  22 1.012443 19 116.540233 16 78.787854 0
C  22 1.357881 19 124.679761 16 -104.931286 0
O  24 1.232677 22 122.955865 19 4.993474 0
C  24 1.541236 22 115.381976 19 -169.354639 0
H  26 1.104277 24 103.379168 22 98.529970 0
N  26 1.460463 24 112.968370 22 -150.430562 0
C  28 1.364990 26 119.592418 24 -131.958305 0
O  29 1.234309 28 125.279593 26 9.708894 0
C  28 1.495608 26 126.358475 24 57.284339 0
O  31 1.372916 28 112.329978 26 30.026230 0
C  29 1.521233 28 108.661335 26 -169.552727 0
H  33 1.099877 29 109.824358 28 139.265702 0
H  33 1.100367 29 108.376840 28 -102.469429 0
C  33 1.531000 29 103.317592 28 16.330962 0
H  36 1.098935 33 114.020845 29 -150.516574 0
H  36 1.101694 33 110.698983 29 86.742873 0
C  26 1.538281 24 116.507600 22 -18.776048 0
H  39 1.098161 26 111.673592 24 -61.221971 0
H  39 1.100255 26 108.888343 24 179.087701 0
H  39 1.102224 26 111.162761 24 61.660990 0
C  3 1.567475 2 110.604890 1 35.038507 0
O  43 1.236832 3 120.544584 2 167.459008 0
O  43 1.295755 3 114.075599 2 -15.571347 0
C  31 1.570023 28 110.946427 26 -94.193988 0
O  46 1.234070 31 120.745715 28 -51.129915 0
O  46 1.297520 31 114.130798 28 133.358174 0
H  9 1.984992 7 137.299645 4 119.832404 0
O  49 0.979871 9 122.058598 7 -130.747409 0
H  50 0.973529 49 103.026699 9 101.803745 0
$end

 -----------------------------------------------------------------------
                  END OF GEOMETRY OPTIMIZER USING LIBOPT3               
 -----------------------------------------------------------------------
 Total job time:  40280.56s(wall), 530596.42s(cpu) 
 Mon Sep  8 00:37:22 2025

        *************************************************************
        *                                                           *
        *  Thank you very much for using Q-Chem.  Have a nice day.  *
        *                                                           *
        *************************************************************


remove work dirs /scratch/cooksy_group/qchem642740.0 -- /scratch/cooksy_group/qchem642740.0
rm -rf /scratch/cooksy_group/qchem642740.0
rm -rf /scratch/cooksy_group/qchem642740
