You are running Q-Chem version: 6.2.0

#
# job setting
#
local host:  itcotck
current dir: /home/cooksy_group/sgardner/kupper
input file:  FeVF1_RSR_b3lypDBJ_ccpVDZ_PCM_h2o_OPT.in
output file: 
nprocs     : 1
nthreads   : 16
#
# qchem installation setting
#
QC:          /opt/qchem/6.2.0
QCAUX:       /opt/qchem/6.2.0/qcaux
QCPROG:      /opt/qchem/6.2.0/exe/qcprog.exe_s
QCPROG_S:    /opt/qchem/6.2.0/exe/qcprog.exe_s
PARALLEL:    -DSERIAL
QCMPI:       seq
#
# qchem directory setting
#
qcrun:       qchem642411
QCSCRATCH:   /scratch/cooksy_group
QCLOCALSCR:  
QCTMPDIR:    /scratch/cooksy_group
QCFILEPREF:  /scratch/cooksy_group/qchem642411
QCSAVEDIR:   
workdirs:    /scratch/cooksy_group/qchem642411
workdir0:    /scratch/cooksy_group/qchem642411
partmpdirs =  
#
# parallel setting
#
QCRSH:           ssh
QCMPI:           seq
QCMPIRUN:        
QCMACHINEFILE:   /opt/qchem/6.2.0/bin/mpi/machines


#
# env setting
#
exported envs:   QC QCAUX QCSCRATCH QCRUNNAME QCFILEPREF QCPROG QCPROG_S GUIFILE

Running Job 1 of 1 FeVF1_RSR_b3lypDBJ_ccpVDZ_PCM_h2o_OPT.in
qchem FeVF1_RSR_b3lypDBJ_ccpVDZ_PCM_h2o_OPT.in_642411.0 /scratch/cooksy_group/qchem642411/ 1
/opt/qchem/6.2.0/exe/qcprog.exe_s FeVF1_RSR_b3lypDBJ_ccpVDZ_PCM_h2o_OPT.in_642411.0 /scratch/cooksy_group/qchem642411/
                  Welcome to Q-Chem
     A Quantum Leap Into The Future Of Chemistry


 Q-Chem 6.2, Q-Chem, Inc., Pleasanton, CA (2024)

 E. Epifanovsky,  A. T. B. Gilbert,  Xintian Feng,  Joonho Lee,  Yuezhi Mao,  
 N. Mardirossian,  P. Pokhilko,  A. White,  M. Wormit,  M. P. Coons,  
 A. L. Dempwolff,  Zhengting Gan,  D. Hait,  P. R. Horn,  L. D. Jacobson,  
 I. Kaliman,  J. Kussmann,  A. W. Lange,  Ka Un Lao,  D. S. Levine,  Jie Liu,  
 S. C. McKenzie,  A. F. Morrison,  K. D. Nanda,  F. Plasser,  D. R. Rehn,  
 M. L. Vidal,  Zhi-Qiang You,  Ying Zhu,  Huseyin Aksu,  B. Alam,  
 B. Albrecht,  A. Aldossary,  E. Alguire,  J. H. Andersen,  
 J. E. Arias-Martinez,  V. Athavale,  D. Barton,  K. Begam,  A. Behn,  
 N. Bellonzi,  Y. A. Bernard,  E. J. Berquist,  H. Burton,  A. Carreras,  
 K. Carter-Fenk,  Mathew Chow,  Romit Chakraborty,  Chandrima Chakravarty,  
 Junhan Chen,  A. D. Chien,  K. D. Closser,  V. Cofer-Shabica,  L. Cunha,  
 S. Dasgupta,  Jia Deng,  Joseph Dickinson,  M. de Wergifosse,  
 M. Diedenhofen,  Hainam Do,  Wenjie Dou,  S. Ehlert,  Po-Tung Fang,  
 S. Fatehi,  Qingguo Feng,  Jonathan Fetherolf,  T. Friedhoff,  
 Thomas Froitzheim,  Sarai Folkestad,  B. Ganoe,  J. Gayvert,  Qinghui Ge,  
 G. Gidofalvi,  M. Gimferrer,  M. Goldey,  Montgomery Gray,  J. Gomes,  
 C. Gonzalez-Espinoza,  S. Gulania,  A. Gunina,  J. A. Gyamfi,  
 M. W. D. Hanson-Heine,  P. H. P. Harbach,  A. W. Hauser,  M. F. Herbst,  
 M. Hernandez Vera,  M. Hodecker,  Z. C. Holden,  S. Houck,  Xunkun Huang,  
 Kerwin Hui,  B. C. Huynh,  K. Ikeda,  M. Ivanov,  Nayanthara K. Jayadev,  
 Hyunjun Ji,  Zuxin Jin,  Hanjie Jiang,  Subrata Jana,  B. Kaduk,  
 S. Kaehler,  R. Kang,  K. Khistyaev,  Jaehoon Kim,  Yongbin Kim,  
 P. Klunzinger,  Z. Koczor-Benda,  Joong Hoon Koh,  D. Kosenkov,  
 Saikiran Kotaru,  L. Koulias,  T. Kowalczyk,  C. M. Krauter,  K. Kue,  
 A. Kunitsa,  T. Kus,  A. Landau,  K. V. Lawler,  D. Lefrancois,  S. Lehtola,  
 Rain Li,  Shaozhi Li,  Tao E. Li,  Yi-Pei Li,  Jiashu Liang,  M. Liebenthal,  
 Hung-Hsuan Lin,  You-Sheng Lin,  Fenglai Liu,  Kuan-Yu Liu,  Xiao Liu,  
 M. Loipersberger,  A. Luenser,  C. Malbon,  Aniket Mandal,  Manisha,  
 A. Manjanath,  P. Manohar,  E. Mansoor,  S. F. Manzer,  Shan-Ping Mao,  
 A. V. Marenich,  T. Markovich,  S. Mason,  F. Matz,  S. A. Maurer,  
 Samuel May,  Alexandra McIsaac,  P. F. McLaughlin,  M. F. S. J. Menger,  
 J.-M. Mewes,  S. A. Mewes,  P. Morgante,  Mohammad Mostafanejad,  
 Madhubani Mukherjee,  J. W. Mullinax,  Quyen Nguyen,  Avik Kumar Ojha,  
 K. J. Oosterbaan,  Eno Paenurk,  Xiaoliang Pan,  G. Paran,  V. Parravicini,  
 Alexander C. Paul,  Suranjan K. Paul,  F. Pavosevic,  Zheng Pei,  S. Prager,  
 E. I. Proynov,  E. Ramos,  B. Rana,  A. E. Rask,  A. Rettig,  R. M. Richard,  
 F. Rob,  E. Rossomme,  T. Scheele,  M. Scheurer,  M. Schneider,  
 P. E. Schneider,  Tim K. Schramm,  N. Sergueev,  S. M. Sharada,  
 Hengyuan Shen,  W. Skomorowski,  D. W. Small,  C. J. Stein,  
 Alistair J. Sterling,  Yingli Su,  Yu-Chuan Su,  E. J. Sundstrom,  
 J. Talbot,  Zhen Tao,  J. Thirman,  Hung-Yi Tsai,  T. Tsuchimochi,  
 N. M. Tubman,  C. Utku,  S. P. Veccham,  O. Vydrov,  Rahel Weiss,  
 J. Wenzel,  Jonathan Wong,  J. Witte,  H. Wu,  Yanze Wu,  A. Yamada,  
 Chou-Hsun Yang,  Kun Yao,  S. Yeganeh,  S. R. Yost,  Qi Yu,  A. Zech,  
 F. Zeller,  Chongxiao Zhao,  Igor Ying Zhang,  Xing Zhang,  Yu Zhang,  
 D. Zuev,  A. Aspuru-Guzik,  A. T. Bell,  N. A. Besley,  K. B. Bravaya,  
 B. R. Brooks,  D. Casanova,  Jeng-Da Chai,  Hsing-Ta Chen,  S. Coriani,  
 C. J. Cramer,  A. E. DePrince, III,  R. A. DiStasio Jr.,  A. Dreuw,  
 B. D. Dunietz,  T. R. Furlani,  W. A. Goddard III,  S. Grimme,  
 S. Hammes-Schiffer,  T. Head-Gordon,  W. J. Hehre,  Chao-Ping Hsu,  
 T.-C. Jagau,  Yousung Jung,  A. Klamt,  Jing Kong,  D. S. Lambrecht,  
 Xiangyuan Li,  WanZhen Liang,  N. J. Mayhall,  C. W. McCurdy,  J. B. Neaton,  
 T. Neudecker,  C. Ochsenfeld,  J. A. Parkhill,  R. Peverati,  
 V. A. Rassolov,  Haisheng Ren,  Yihan Shao,  L. V. Slipchenko,  
 R. P. Steele,  J. E. Subotnik,  A. J. W. Thom,  A. Tkatchenko,  
 D. G. Truhlar,  T. Van Voorhis,  Fan Wang,  T. A. Wesolowski,  K. B. Whaley,  
 H. L. Woodcock III,  P. M. Zimmerman,  S. Faraji,  P. M. W. Gill,  
 M. Head-Gordon,  J. M. Herbert,  A. I. Krylov

 Contributors to earlier versions of Q-Chem not listed above: 
 R. D. Adamson,  B. Austin,  R. Baer,  J. Baker,  G. J. O. Beran,  
 K. Brandhorst,  S. T. Brown,  E. F. C. Byrd,  Arup K. Chakraborty,  
 G. K. L. Chan,  Chun-Min Chang,  Yunqing Chen,  C.-L. Cheng,  
 Siu Hung Chien,  D. M. Chipman,  D. L. Crittenden,  H. Dachsel,  
 R. J. Doerksen,  A. D. Dutoi,  R. G. Edgar,  J. Fosso-Tande,  
 L. Fusti-Molnar,  D. Ghosh,  A. Ghysels,  A. Golubeva-Zadorozhnaya,  
 J. Gonthier,  M. S. Gordon,  S. R. Gwaltney,  G. Hawkins,  J. E. Herr,  
 A. Heyden,  S. Hirata,  E. G. Hohenstein,  G. Kedziora,  F. J. Keil,  
 C. Kelley,  Jihan Kim,  R. A. King,  R. Z. Khaliullin,  P. P. Korambath,  
 W. Kurlancheek,  A. Laurent,  A. M. Lee,  M. S. Lee,  S. V. Levchenko,  
 Ching Yeh Lin,  D. Liotard,  E. Livshits,  R. C. Lochan,  I. Lotan,  
 L. A. Martinez-Martinez,  P. E. Maslen,  N. Nair,  D. P. O'Neill,  
 D. Neuhauser,  E. Neuscamman,  C. M. Oana,  R. Olivares-Amaya,  R. Olson,  
 T. M. Perrine,  B. Peters,  P. A. Pieniazek,  A. Prociuk,  Y. M. Rhee,  
 J. Ritchie,  M. A. Rohrdanz,  E. Rosta,  N. J. Russ,  H. F. Schaefer III,  
 M. W. Schmidt,  N. E. Schultz,  S. Sharma,  N. Shenvi,  C. D. Sherrill,  
 A. C. Simmonett,  A. Sodt,  T. Stein,  D. Stuck,  K. S. Thanthiriwatte,  
 V. Vanovschi,  L. Vogt,  Tao Wang,  A. Warshel,  M. A. Watson,  
 C. F. Williams,  Q. Wu,  X. Xu,  Jun Yang,  W. Zhang,  Yan Zhao

   Please cite Q-Chem as follows:
  "Software for the frontiers of quantum chemistry:
   An overview of developments in the Q-Chem 5 package"
   J. Chem. Phys. 155, 084801 (2021)
   https://doi.org/10.1063/5.0055522 (open access)

 Q-Chem 6.2.0 for Intel X86 EM64T Linux

 Parts of Q-Chem use Armadillo 9.900.5 (Nocturnal Misbehaviour).
 http://arma.sourceforge.net/

 Q-Chem begins on Sun Sep  7 13:15:58 2025  

 Host: 
0

     Scratch files written to /scratch/cooksy_group/qchem642411//
 May224 |scratch|qcdevops|jenkins|workspace|build_RNUM -1
 Processing $rem in /opt/qchem/6.2.0/config/preferences:
 Processing $rem in /home/cooksy_group/.qchemrc:
 Symmetry turned off for PCM/SM12/SMD calculation

 Checking the input file for inconsistencies... 	...done.

--------------------------------------------------------------
User input:
--------------------------------------------------------------
$molecule
-2 6
C   -5.9250741   -4.1356529    1.7455861
C   -6.5652699   -2.8447761    2.2783431
N   -5.6234015   -1.8557154    2.1851284
O   -7.7125119   -2.6918356    2.7438102
C   -4.3102774   -2.3223662    1.6281127
C   -5.8215958   -0.5810701    2.8960147
C   -4.4200628   -3.8551060    1.9355889
C   -4.2921988   -2.2190384    0.0709913
O   -3.2256118   -1.6499661    2.1808771
H   -3.7683501   -4.4417842    1.2836250
H   -4.1233387   -3.9981523    2.9807614
H   -6.3049696   -5.0060661    2.2823036
H   -6.1494660   -4.2119816    0.6776577
C   -4.8714408    0.4773157    2.3291536
O   -4.8107104    0.6438800    1.0739791
N   -4.2218833    1.2612197    3.2096247
C   -5.7245770   -0.8019420    4.4179659
H   -4.3294669    1.0981556    4.2060037
C   -3.2664021    2.2999178    2.7769578
C   -1.9841310    2.2933461    3.6298599
O   -0.9696289    3.0648708    2.8442786
C   -0.2138213    2.3398114    1.9221703
C    0.8485107    1.4049443    2.4675301
O   -0.4095685    2.5074056    0.7130609
C    0.3677851    0.0053137    2.0171728
C    0.7521981   -0.1500221    0.5075233
O   -1.0537677   -0.0029039    2.2129179
C    1.0178405   -1.1663568    2.7613952
C    0.2888356   -2.5132590    2.4811913
O    0.5381947   -3.4881988    3.2198816
O   -0.5347602   -2.5672298    1.4432861
H   -3.7316368    3.2904742    2.7796201
H   -2.9750651    2.0423756    1.7663930
H   -1.6427482    1.2664586    3.7473098
H   -2.1002322    2.8220875    4.5756930
H    0.9071611    1.4816268    3.5537627
H    0.9998497   -1.0028398    3.8446529
H    2.0628609   -1.2678744    2.4419753
O   -3.0587627   -2.0576188   -0.3914590
O   -5.3100105   -2.3850156   -0.6282875
H   -6.8390507   -0.2455548    2.6560313
H   -4.7169883   -1.1348752    4.6820470
H   -6.4458089   -1.5769800    4.6876832
H   -5.9831510    0.1068519    4.9723475
O    1.9343376    0.0723637    0.1600944
O   -0.2216269   -0.5599743   -0.2728685
H    1.8156050    1.6108057    2.0007599
Fe   -1.8240287   -1.1437508    0.8929697
O   -2.5505888    0.5962532   -0.0659640
H   -3.4824739    0.8150392    0.3147211
H   -1.8930696    1.3245001    0.1024051
$end

$rem
BASIS  =  gen
DFT_D  =  FALSE
GUI  =  2
JOB_TYPE  =  Optimization
MEM_TOTAL  =  30000
METHOD  =  B3LYP
SCF_CONVERGENCE  =  8
SCF_MAX_CYCLES  =  200
SOLVENT_METHOD  =  PCM
$end

$geom_opt
MAXITER  200
$end

$pcm
THEORY  CPCM
$end

$solvent
DIELECTRIC  78.39
$end

$van_der_waals
26   2.44
$end

!----------------------------------------------------------------------
! Basis Set Exchange
! Version 0.11
! https://www.basissetexchange.org
!----------------------------------------------------------------------
!   Basis set: cc-pVDZ
! Description: cc-pVDZ
!        Role: orbital
!     Version: 1  (Data from ccRepo/Grant Hill)
!----------------------------------------------------------------------

$rem
BASIS GEN
PURECART 11
$end

$basis
H     0
S   4   1.00
1.301000D+01           1.968500D-02
1.962000D+00           1.379770D-01
4.446000D-01           4.781480D-01
1.220000D-01           5.012400D-01
S   1   1.00
1.220000D-01           1.000000D+00
P   1   1.00
7.270000D-01           1.0000000
****
C     0
S   9   1.00
6.665000D+03           6.920000D-04
1.000000D+03           5.329000D-03
2.280000D+02           2.707700D-02
6.471000D+01           1.017180D-01
2.106000D+01           2.747400D-01
7.495000D+00           4.485640D-01
2.797000D+00           2.850740D-01
5.215000D-01           1.520400D-02
1.596000D-01          -3.191000D-03
S   9   1.00
6.665000D+03          -1.460000D-04
1.000000D+03          -1.154000D-03
2.280000D+02          -5.725000D-03
6.471000D+01          -2.331200D-02
2.106000D+01          -6.395500D-02
7.495000D+00          -1.499810D-01
2.797000D+00          -1.272620D-01
5.215000D-01           5.445290D-01
1.596000D-01           5.804960D-01
S   1   1.00
1.596000D-01           1.000000D+00
P   4   1.00
9.439000D+00           3.810900D-02
2.002000D+00           2.094800D-01
5.456000D-01           5.085570D-01
1.517000D-01           4.688420D-01
P   1   1.00
1.517000D-01           1.000000D+00
D   1   1.00
5.500000D-01           1.0000000
****
N     0
S   9   1.00
9.046000D+03           7.000000D-04
1.357000D+03           5.389000D-03
3.093000D+02           2.740600D-02
8.773000D+01           1.032070D-01
2.856000D+01           2.787230D-01
1.021000D+01           4.485400D-01
3.838000D+00           2.782380D-01
7.466000D-01           1.544000D-02
2.248000D-01          -2.864000D-03
S   9   1.00
9.046000D+03          -1.530000D-04
1.357000D+03          -1.208000D-03
3.093000D+02          -5.992000D-03
8.773000D+01          -2.454400D-02
2.856000D+01          -6.745900D-02
1.021000D+01          -1.580780D-01
3.838000D+00          -1.218310D-01
7.466000D-01           5.490030D-01
2.248000D-01           5.788150D-01
S   1   1.00
2.248000D-01           1.000000D+00
P   4   1.00
1.355000D+01           3.991900D-02
2.917000D+00           2.171690D-01
7.973000D-01           5.103190D-01
2.185000D-01           4.622140D-01
P   1   1.00
2.185000D-01           1.000000D+00
D   1   1.00
8.170000D-01           1.0000000
****
O     0
S   9   1.00
1.172000D+04           7.100000D-04
1.759000D+03           5.470000D-03
4.008000D+02           2.783700D-02
1.137000D+02           1.048000D-01
3.703000D+01           2.830620D-01
1.327000D+01           4.487190D-01
5.025000D+00           2.709520D-01
1.013000D+00           1.545800D-02
3.023000D-01          -2.585000D-03
S   9   1.00
1.172000D+04          -1.600000D-04
1.759000D+03          -1.263000D-03
4.008000D+02          -6.267000D-03
1.137000D+02          -2.571600D-02
3.703000D+01          -7.092400D-02
1.327000D+01          -1.654110D-01
5.025000D+00          -1.169550D-01
1.013000D+00           5.573680D-01
3.023000D-01           5.727590D-01
S   1   1.00
3.023000D-01           1.000000D+00
P   4   1.00
1.770000D+01           4.301800D-02
3.854000D+00           2.289130D-01
1.046000D+00           5.087280D-01
2.753000D-01           4.605310D-01
P   1   1.00
2.753000D-01           1.000000D+00
D   1   1.00
1.185000D+00           1.0000000
****
Fe     0
S   20   1.00
4.316265D+06           8.048803D-06
6.463424D+05           6.258306D-05
1.470897D+05           3.290239D-04
4.166152D+04           1.387355D-03
1.359077D+04           5.023256D-03
4.905750D+03           1.610140D-02
1.912746D+03           4.590034D-02
7.926043D+02           1.136154D-01
3.448065D+02           2.283869D-01
1.558999D+02           3.221159D-01
7.223091D+01           2.383661D-01
3.272506D+01           7.404667D-02
1.566762D+01           9.214197D-02
7.503483D+00           9.339790D-02
3.312223D+00           1.573965D-02
1.558471D+00          -4.186682D-04
6.839140D-01           5.376318D-05
1.467570D-01          -3.816654D-05
7.058300D-02           4.319603D-05
3.144900D-02          -3.401019D-06
S   20   1.00
4.316265D+06          -4.155954D-06
6.463424D+05          -3.231401D-05
1.470897D+05          -1.699525D-04
4.166152D+04          -7.171369D-04
1.359077D+04          -2.603625D-03
4.905750D+03          -8.399109D-03
1.912746D+03          -2.434109D-02
7.926043D+02          -6.251948D-02
3.448065D+02          -1.365929D-01
1.558999D+02          -2.312707D-01
7.223091D+01          -2.383734D-01
3.272506D+01           3.123837D-02
1.566762D+01           5.086818D-01
7.503483D+00           4.987695D-01
3.312223D+00           9.033552D-02
1.558471D+00          -6.005337D-03
6.839140D-01           2.312454D-04
1.467570D-01          -5.643680D-04
7.058300D-02           4.992260D-04
3.144900D-02          -1.015293D-04
S   20   1.00
4.316265D+06           9.532178D-07
6.463424D+05           7.414605D-06
1.470897D+05           3.898393D-05
4.166152D+04           1.647152D-04
1.359077D+04           5.985980D-04
4.905750D+03           1.942390D-03
1.912746D+03           5.687237D-03
7.926043D+02           1.501329D-02
3.448065D+02           3.452455D-02
1.558999D+02           6.495820D-02
7.223091D+01           7.716194D-02
3.272506D+01          -1.873411D-02
1.566762D+01          -3.009185D-01
7.503483D+00          -4.554661D-01
3.312223D+00           1.286463D-01
1.558471D+00           7.183316D-01
6.839140D-01           4.051743D-01
1.467570D-01           2.168227D-02
7.058300D-02          -8.343566D-03
3.144900D-02           3.658979D-03
S   20   1.00
4.316265D+06          -2.063008D-07
6.463424D+05          -1.604169D-06
1.470897D+05          -8.438437D-06
4.166152D+04          -3.563151D-05
1.359077D+04          -1.295998D-04
4.905750D+03          -4.201534D-04
1.912746D+03          -1.231954D-03
7.926043D+02          -3.248922D-03
3.448065D+02          -7.493717D-03
1.558999D+02          -1.410102D-02
7.223091D+01          -1.691600D-02
3.272506D+01           4.218996D-03
1.566762D+01           6.833810D-02
7.503483D+00           1.098201D-01
3.312223D+00          -4.009005D-02
1.558471D+00          -2.174739D-01
6.839140D-01          -2.465135D-01
1.467570D-01           2.731435D-01
7.058300D-02           5.748321D-01
3.144900D-02           3.012713D-01
S   20   1.00
4.316265D+06          -4.009367D-07
6.463424D+05          -3.189255D-06
1.470897D+05          -1.623079D-05
4.166152D+04          -7.157920D-05
1.359077D+04          -2.463958D-04
4.905750D+03          -8.544907D-04
1.912746D+03          -2.307593D-03
7.926043D+02          -6.728292D-03
3.448065D+02          -1.366165D-02
1.558999D+02          -3.062240D-02
7.223091D+01          -2.631137D-02
3.272506D+01          -9.760183D-03
1.566762D+01           1.801906D-01
7.503483D+00           1.529634D-01
3.312223D+00           5.505413D-02
1.558471D+00          -9.551364D-01
6.839140D-01           2.586813D-01
1.467570D-01           1.834049D+00
7.058300D-02          -9.333240D-01
3.144900D-02          -6.981605D-01
S   1   1.00
3.144900D-02           1.000000D+00
P   16   1.00
1.774569D+04           4.100000D-05
4.200721D+03           3.690000D-04
1.364429D+03           2.129000D-03
5.220806D+02           9.369000D-03
2.214595D+02           3.309700D-02
1.009096D+02           9.443100D-02
4.840115D+01           2.080770D-01
2.398536D+01           3.323330D-01
1.218250D+01           3.329870D-01
6.242298D+00           1.568430D-01
3.110944D+00           2.154900D-02
1.509958D+00          -2.095000D-03
7.108450D-01          -1.739000D-03
2.731900D-01          -3.000000D-04
1.042330D-01           2.900000D-05
3.829100D-02          -1.100000D-05
P   16   1.00
1.774569D+04          -1.500000D-05
4.200721D+03          -1.300000D-04
1.364429D+03          -7.510000D-04
5.220806D+02          -3.329000D-03
2.214595D+02          -1.191200D-02
1.009096D+02          -3.493300D-02
4.840115D+01          -7.998900D-02
2.398536D+01          -1.346360D-01
1.218250D+01          -1.385980D-01
6.242298D+00           3.027800D-02
3.110944D+00           3.332160D-01
1.509958D+00           4.561530D-01
7.108450D-01           2.850510D-01
2.731900D-01           4.614400D-02
1.042330D-01          -3.249000D-03
3.829100D-02           1.357000D-03
P   16   1.00
1.774569D+04           5.000000D-06
4.200721D+03           4.200000D-05
1.364429D+03           2.410000D-04
5.220806D+02           1.085000D-03
2.214595D+02           3.831000D-03
1.009096D+02           1.142300D-02
4.840115D+01           2.579200D-02
2.398536D+01           4.481800D-02
1.218250D+01           4.459800D-02
6.242298D+00          -1.117700D-02
3.110944D+00          -1.381340D-01
1.509958D+00          -1.882850D-01
7.108450D-01          -1.073990D-01
2.731900D-01           4.448630D-01
1.042330D-01           6.402390D-01
3.829100D-02           6.445700D-02
P   16   1.00
1.774569D+04           3.000000D-06
4.200721D+03           2.900000D-05
1.364429D+03           1.650000D-04
5.220806D+02           7.340000D-04
2.214595D+02           2.626000D-03
1.009096D+02           7.725000D-03
4.840115D+01           1.773300D-02
2.398536D+01           3.005500D-02
1.218250D+01           3.109400D-02
6.242298D+00          -1.004800D-02
3.110944D+00          -8.830600D-02
1.509958D+00          -1.298240D-01
7.108450D-01          -7.693700D-02
2.731900D-01           2.126610D-01
1.042330D-01           5.730610D-01
3.829100D-02           3.696510D-01
P   1   1.00
3.829100D-02           1.000000D+00
D   8   1.00
1.133440D+02           3.530000D-03
3.364140D+01           2.578400D-02
1.233100D+01           9.911900D-02
4.994780D+00           2.390730D-01
2.072800D+00           3.571990D-01
8.307530D-01           3.621880D-01
3.091780D-01           2.364610D-01
1.001300D-01           6.011800D-02
D   8   1.00
1.133440D+02          -3.890000D-03
3.364140D+01          -2.844200D-02
1.233100D+01          -1.124290D-01
4.994780D+00          -2.742570D-01
2.072800D+00          -3.155460D-01
8.307530D-01           5.710900D-02
3.091780D-01           5.636040D-01
1.001300D-01           3.846370D-01
D   1   1.00
1.001300D-01           1.000000D+00
F   2   1.00
3.224300D+00           4.222490D-01
7.758000D-01           7.714680D-01
****
$end


--------------------------------------------------------------
 ----------------------------------------------------------------
             Standard Nuclear Orientation (Angstroms)
    I     Atom           X                Y                Z
 ----------------------------------------------------------------
    1      C      -5.9250741000    -4.1356529000     1.7455861000
    2      C      -6.5652699000    -2.8447761000     2.2783431000
    3      N      -5.6234015000    -1.8557154000     2.1851284000
    4      O      -7.7125119000    -2.6918356000     2.7438102000
    5      C      -4.3102774000    -2.3223662000     1.6281127000
    6      C      -5.8215958000    -0.5810701000     2.8960147000
    7      C      -4.4200628000    -3.8551060000     1.9355889000
    8      C      -4.2921988000    -2.2190384000     0.0709913000
    9      O      -3.2256118000    -1.6499661000     2.1808771000
   10      H      -3.7683501000    -4.4417842000     1.2836250000
   11      H      -4.1233387000    -3.9981523000     2.9807614000
   12      H      -6.3049696000    -5.0060661000     2.2823036000
   13      H      -6.1494660000    -4.2119816000     0.6776577000
   14      C      -4.8714408000     0.4773157000     2.3291536000
   15      O      -4.8107104000     0.6438800000     1.0739791000
   16      N      -4.2218833000     1.2612197000     3.2096247000
   17      C      -5.7245770000    -0.8019420000     4.4179659000
   18      H      -4.3294669000     1.0981556000     4.2060037000
   19      C      -3.2664021000     2.2999178000     2.7769578000
   20      C      -1.9841310000     2.2933461000     3.6298599000
   21      O      -0.9696289000     3.0648708000     2.8442786000
   22      C      -0.2138213000     2.3398114000     1.9221703000
   23      C       0.8485107000     1.4049443000     2.4675301000
   24      O      -0.4095685000     2.5074056000     0.7130609000
   25      C       0.3677851000     0.0053137000     2.0171728000
   26      C       0.7521981000    -0.1500221000     0.5075233000
   27      O      -1.0537677000    -0.0029039000     2.2129179000
   28      C       1.0178405000    -1.1663568000     2.7613952000
   29      C       0.2888356000    -2.5132590000     2.4811913000
   30      O       0.5381947000    -3.4881988000     3.2198816000
   31      O      -0.5347602000    -2.5672298000     1.4432861000
   32      H      -3.7316368000     3.2904742000     2.7796201000
   33      H      -2.9750651000     2.0423756000     1.7663930000
   34      H      -1.6427482000     1.2664586000     3.7473098000
   35      H      -2.1002322000     2.8220875000     4.5756930000
   36      H       0.9071611000     1.4816268000     3.5537627000
   37      H       0.9998497000    -1.0028398000     3.8446529000
   38      H       2.0628609000    -1.2678744000     2.4419753000
   39      O      -3.0587627000    -2.0576188000    -0.3914590000
   40      O      -5.3100105000    -2.3850156000    -0.6282875000
   41      H      -6.8390507000    -0.2455548000     2.6560313000
   42      H      -4.7169883000    -1.1348752000     4.6820470000
   43      H      -6.4458089000    -1.5769800000     4.6876832000
   44      H      -5.9831510000     0.1068519000     4.9723475000
   45      O       1.9343376000     0.0723637000     0.1600944000
   46      O      -0.2216269000    -0.5599743000    -0.2728685000
   47      H       1.8156050000     1.6108057000     2.0007599000
   48      Fe     -1.8240287000    -1.1437508000     0.8929697000
   49      O      -2.5505888000     0.5962532000    -0.0659640000
   50      H      -3.4824739000     0.8150392000     0.3147211000
   51      H      -1.8930696000     1.3245001000     0.1024051000
 ----------------------------------------------------------------
 Nuclear Repulsion Energy =        4562.10025959 hartrees
 There are      133 alpha and      128 beta electrons
 Requested basis set is non-standard
 There are 258 shells and 572 basis functions

 Total QAlloc Memory Limit  30000 MB
 Mega-Array Size       188 MB
 MEM_STATIC part       192 MB

 -----------------------------------------------------------------------
                STARTING GEOMETRY OPTIMIZER USING LIBOPT3
                by Peter F. McLaughlin, Yu Zhang, Evgeny Epifanovsky
 -----------------------------------------------------------------------

              Initial Energy and Gradient Calculation
   -- Checking Topology for Ill-Behaving Coordinates --

 -------------------------------------------
   Coordinate       |  Removed | Additions 
 -------------------------------------------
	Bonds                     0          0
	Angles                    1          0
	Torsions                  2          2
	Co-Linear Type5s          0          2
	Co-Linear Type6s          0          2
 -------------------------------------------

 ** Ill-Behaving Topology Definitions (No action needed.) **

  Ill-Defined Angles Removed: 
   9  48  46

  Ill-Defined Torsions Removed: 
   5   9  48  46,  26  46  48   9

     Done Checking Topology
 ----------------------------------------------------------------
             Standard Nuclear Orientation (Angstroms)
    I     Atom           X                Y                Z
 ----------------------------------------------------------------
    1      C      -5.9250741000    -4.1356529000     1.7455861000
    2      C      -6.5652699000    -2.8447761000     2.2783431000
    3      N      -5.6234015000    -1.8557154000     2.1851284000
    4      O      -7.7125119000    -2.6918356000     2.7438102000
    5      C      -4.3102774000    -2.3223662000     1.6281127000
    6      C      -5.8215958000    -0.5810701000     2.8960147000
    7      C      -4.4200628000    -3.8551060000     1.9355889000
    8      C      -4.2921988000    -2.2190384000     0.0709913000
    9      O      -3.2256118000    -1.6499661000     2.1808771000
   10      H      -3.7683501000    -4.4417842000     1.2836250000
   11      H      -4.1233387000    -3.9981523000     2.9807614000
   12      H      -6.3049696000    -5.0060661000     2.2823036000
   13      H      -6.1494660000    -4.2119816000     0.6776577000
   14      C      -4.8714408000     0.4773157000     2.3291536000
   15      O      -4.8107104000     0.6438800000     1.0739791000
   16      N      -4.2218833000     1.2612197000     3.2096247000
   17      C      -5.7245770000    -0.8019420000     4.4179659000
   18      H      -4.3294669000     1.0981556000     4.2060037000
   19      C      -3.2664021000     2.2999178000     2.7769578000
   20      C      -1.9841310000     2.2933461000     3.6298599000
   21      O      -0.9696289000     3.0648708000     2.8442786000
   22      C      -0.2138213000     2.3398114000     1.9221703000
   23      C       0.8485107000     1.4049443000     2.4675301000
   24      O      -0.4095685000     2.5074056000     0.7130609000
   25      C       0.3677851000     0.0053137000     2.0171728000
   26      C       0.7521981000    -0.1500221000     0.5075233000
   27      O      -1.0537677000    -0.0029039000     2.2129179000
   28      C       1.0178405000    -1.1663568000     2.7613952000
   29      C       0.2888356000    -2.5132590000     2.4811913000
   30      O       0.5381947000    -3.4881988000     3.2198816000
   31      O      -0.5347602000    -2.5672298000     1.4432861000
   32      H      -3.7316368000     3.2904742000     2.7796201000
   33      H      -2.9750651000     2.0423756000     1.7663930000
   34      H      -1.6427482000     1.2664586000     3.7473098000
   35      H      -2.1002322000     2.8220875000     4.5756930000
   36      H       0.9071611000     1.4816268000     3.5537627000
   37      H       0.9998497000    -1.0028398000     3.8446529000
   38      H       2.0628609000    -1.2678744000     2.4419753000
   39      O      -3.0587627000    -2.0576188000    -0.3914590000
   40      O      -5.3100105000    -2.3850156000    -0.6282875000
   41      H      -6.8390507000    -0.2455548000     2.6560313000
   42      H      -4.7169883000    -1.1348752000     4.6820470000
   43      H      -6.4458089000    -1.5769800000     4.6876832000
   44      H      -5.9831510000     0.1068519000     4.9723475000
   45      O       1.9343376000     0.0723637000     0.1600944000
   46      O      -0.2216269000    -0.5599743000    -0.2728685000
   47      H       1.8156050000     1.6108057000     2.0007599000
   48      Fe     -1.8240287000    -1.1437508000     0.8929697000
   49      O      -2.5505888000     0.5962532000    -0.0659640000
   50      H      -3.4824739000     0.8150392000     0.3147211000
   51      H      -1.8930696000     1.3245001000     0.1024051000
 ----------------------------------------------------------------
 Nuclear Repulsion Energy =        4562.10025959 hartrees
 There are      133 alpha and      128 beta electrons
 Using C-PCM dielectric factor f(eps) = (eps-1)/eps = 0.987243
 Static dielectric constant eps = 78.39
 No default van der Waals radius is available for Z = 26
	Found R = 2.4400 A in the $van_der_waals section
 Discretize the solute cavity surface with Lebedev spheres
	Using 110 Lebedev grid points for each H atom
	Using 194 Lebedev grid points for other atoms
	Atomic van der Waals radii (Bondi set) will be scaled by 1.20
 Using smooth SwiG surface discretization
 Remove points where switching function is < 1.0e-08
 Keep 2890 surface tesserae and discard 5408 interior tesserae
 Molecular Surface Area = 390.366 Angst**2

 Requested basis set is non-standard
 There are 258 shells and 572 basis functions
 A cutoff of  1.0D-12 yielded  29738 shell pairs
 There are    137298 function pairs (    153926 Cartesian)
 Smallest overlap matrix eigenvalue = 2.46E-04

 Scale SEOQF with 1.000000e-02/1.000000e-01/1.000000e-01

 Standard Electronic Orientation quadrupole field applied
 Nucleus-field energy     =    -0.0000000405 hartrees
 ================ Generating on-the-fly SAD Guess ================
 Attempting to make child job directory: /scratch/cooksy_group/qchem642411//Frg1/
 Attempting to make child job directory: /scratch/cooksy_group/qchem642411//Frg2/
 Attempting to make child job directory: /scratch/cooksy_group/qchem642411//Frg3/
 Attempting to make child job directory: /scratch/cooksy_group/qchem642411//Frg4/
 Attempting to make child job directory: /scratch/cooksy_group/qchem642411//Frg5/
 Creating input file /scratch/cooksy_group/qchem642411/Frg1.input
 using default PutDataFrgm: nothing
 calling putenv with: QCSCRATCH=/scratch/cooksy_group/qchem642411/ 
 Spawning Job For Fragment 0
 Done Job For Fragment 0
 calling putenv with: QCSCRATCH=/scratch/cooksy_group 
 calling putenv with: QCTHREADS=16 
 Creating input file /scratch/cooksy_group/qchem642411/Frg2.input
 using default PutDataFrgm: nothing
 calling putenv with: QCSCRATCH=/scratch/cooksy_group/qchem642411/ 
 Spawning Job For Fragment 1
 Done Job For Fragment 1
 calling putenv with: QCSCRATCH=/scratch/cooksy_group 
 calling putenv with: QCTHREADS=16 
 Creating input file /scratch/cooksy_group/qchem642411/Frg3.input
 using default PutDataFrgm: nothing
 calling putenv with: QCSCRATCH=/scratch/cooksy_group/qchem642411/ 
 Spawning Job For Fragment 2
 Done Job For Fragment 2
 calling putenv with: QCSCRATCH=/scratch/cooksy_group 
 calling putenv with: QCTHREADS=16 
 Creating input file /scratch/cooksy_group/qchem642411/Frg4.input
 using default PutDataFrgm: nothing
 calling putenv with: QCSCRATCH=/scratch/cooksy_group/qchem642411/ 
 Spawning Job For Fragment 3
 Done Job For Fragment 3
 calling putenv with: QCSCRATCH=/scratch/cooksy_group 
 calling putenv with: QCTHREADS=16 
 Creating input file /scratch/cooksy_group/qchem642411/Frg5.input
 using default PutDataFrgm: nothing
 calling putenv with: QCSCRATCH=/scratch/cooksy_group/qchem642411/ 
 Spawning Job For Fragment 4
 Done Job For Fragment 4
 calling putenv with: QCSCRATCH=/scratch/cooksy_group 
 calling putenv with: QCTHREADS=16 
 Time for running child jobs:  CPU 0.01 s  wall 87.82 s
 ============= Method Specific SAD Guess Constructed =============
 Guess from on-the-fly superposition of atomic densities
 Warning: Energy on first SCF cycle will be non-variational

 -----------------------------------------------------------------------
  General SCF calculation program by
  Eric Jon Sundstrom, Paul Horn, Yuezhi Mao, Dmitri Zuev, Alec White,
  David Stuck, Shaama M.S., Shane Yost, Joonho Lee, David Small,
  Daniel Levine, Susi Lehtola, Hugh Burton, Evgeny Epifanovsky,
  Bang C. Huynh
 -----------------------------------------------------------------------
 Exchange:     0.2000 Hartree-Fock + 0.0800 Slater + 0.7200 B88
 Correlation:  0.1900 VWN1RPA + 0.8100 LYP
 Using SG-1 standard quadrature grid
 using 16 threads for integral computing
 -------------------------------------------------------
 OpenMP Integral computing Module                
 Release: version 1.0, May 2013, Q-Chem Inc. Pittsburgh 
 -------------------------------------------------------
 C-PCM solvent model [f = (eps-1)/eps], solve by matrix inversion
 A unrestricted SCF calculation will be
 performed using DIIS
 SCF converges when DIIS error is below 1.0e-08
 ---------------------------------------
  Cycle       Energy         DIIS error
 ---------------------------------------
    1   -2983.4852255104      1.78e-02  
    2   -2972.0507181429      2.55e-03  
    3   -2968.9656834868      6.23e-03  
    4   -2971.2839836680      3.48e-03  
    5   -2972.8988597398      6.33e-04  
    6   -2972.9366624426      4.03e-04  
    7   -2972.9571662252      1.45e-04  
    8   -2972.9596623751      6.44e-05  
    9   -2972.9601159410      3.62e-05  
   10   -2972.9602513652      1.84e-05  
   11   -2972.9602938510      8.64e-06  
   12   -2972.9603046749      2.95e-06  
   13   -2972.9603056868      1.50e-06  
   14   -2972.9603060031      7.66e-07  
   15   -2972.9603061009      3.91e-07  
   16   -2972.9603061263      1.45e-07  
   17   -2972.9603061309      6.15e-08  
   18   -2972.9603061318      3.43e-08  
   19   -2972.9603061321      1.72e-08  
   20   -2972.9603061321      9.00e-09  Convergence criterion met
 ---------------------------------------
 SCF time:   CPU 28282.88s  wall 2016.00s 
<S^2> =          8.756489260

************** Final PCM Free Energy Summary **************
 G_electrostatic  =      -0.29372087 hartree =    -184.31262980 kcal/mol
 G_cavitation     =       0.00000000 hartree =       0.00000000 kcal/mol
 G_dispersion     =       0.00000000 hartree =       0.00000000 kcal/mol
 G_repulsion      =       0.00000000 hartree =       0.00000000 kcal/mol
 --------------------------------------------------
 Non-electrostatic Free Energy =       0.00000000 hartree =       0.00000000 kcal/mol
 Total                         =      -0.29372087 hartree =    -184.31262980 kcal/mol
 --------------------------------------------------
 SCF Energy (H0 + V/2)                       =   -2972.96030613 
 Solute Internal Energy (H0)                 =   -2972.66658526 
 Total Free Energy (H0 + V/2 + non-elec)     =   -2972.96030613 hartree
                                             = -1865560.75811128 kcal/mol
***********************************************************

 SCF   energy = -2972.96030613
 Total energy = -2972.96030613
 
 --------------------------------------------------------------
 
                    Orbital Energies (a.u.)
 --------------------------------------------------------------
 
 Alpha MOs
 -- Occupied --
 -256.12550   -30.12509   -25.97839   -25.97670   -25.97469   -19.16273
  -19.14004   -19.13413   -19.12002   -19.10774   -19.10344   -19.10046
  -19.09853   -19.09589   -19.08745   -19.08676   -19.08657   -19.08170
  -14.36679   -14.34483   -10.32593   -10.30301   -10.28136   -10.27721
  -10.27635   -10.27008   -10.25699   -10.23927   -10.23505   -10.22675
  -10.22114   -10.18593   -10.18182   -10.18031   -10.17897   -10.17667
   -3.60863    -2.38549    -2.38177    -2.37950    -1.07770    -1.04214
   -1.03241    -1.02765    -1.01964    -1.01862    -1.00448    -0.98912
   -0.96941    -0.95413    -0.94726    -0.93718    -0.93641    -0.92905
   -0.90742    -0.80562    -0.77251    -0.75881    -0.73336    -0.71935
   -0.67928    -0.66511    -0.64145    -0.61110    -0.60304    -0.59319
   -0.55865    -0.54967    -0.54365    -0.53143    -0.52857    -0.50549
   -0.49753    -0.49294    -0.49167    -0.48987    -0.47556    -0.46964
   -0.46682    -0.46269    -0.45435    -0.44943    -0.44371    -0.44150
   -0.43370    -0.43219    -0.42909    -0.42178    -0.41812    -0.41794
   -0.41124    -0.40974    -0.40347    -0.40209    -0.39889    -0.39551
   -0.39155    -0.39019    -0.38608    -0.38290    -0.37706    -0.37645
   -0.37402    -0.37165    -0.36352    -0.36318    -0.35660    -0.35269
   -0.35135    -0.34030    -0.33666    -0.33312    -0.32797    -0.31627
   -0.29307    -0.28812    -0.28130    -0.27967    -0.27466    -0.27213
   -0.26314    -0.26293    -0.26035    -0.25794    -0.25609    -0.24731
   -0.24485    -0.24011    -0.23280    -0.22524    -0.21643    -0.21133
   -0.19629
 -- Virtual --
   -0.02283     0.00656     0.02316     0.03421     0.03973     0.04763
    0.05610     0.06179     0.06790     0.07845     0.09164     0.09714
    0.10207     0.10631     0.10936     0.11800     0.12651     0.13350
    0.13922     0.14110     0.14614     0.15192     0.15716     0.16445
    0.16989     0.17438     0.17971     0.18109     0.18238     0.19283
    0.19908     0.20434     0.20689     0.21194     0.22430     0.22833
    0.23450     0.23541     0.23977     0.25355     0.25586     0.26241
    0.26503     0.27461     0.27903     0.28408     0.29146     0.29666
    0.30096     0.31646     0.32806     0.33842     0.34333     0.35144
    0.35621     0.36491     0.37055     0.37569     0.38213     0.39379
    0.40643     0.41052     0.42152     0.42981     0.43456     0.43955
    0.45108     0.45435     0.46221     0.47087     0.47870     0.48009
    0.48589     0.48834     0.49863     0.50058     0.50884     0.51711
    0.51829     0.52579     0.52982     0.53425     0.54076     0.54768
    0.54941     0.55448     0.55706     0.56749     0.57871     0.58165
    0.58659     0.59178     0.59958     0.60244     0.60785     0.60975
    0.61984     0.62310     0.62421     0.63151     0.63721     0.63879
    0.64211     0.64383     0.64788     0.65055     0.65588     0.65720
    0.66261     0.66692     0.67488     0.67806     0.68023     0.68984
    0.69189     0.69478     0.69861     0.70401     0.70712     0.71635
    0.72324     0.72624     0.73238     0.73913     0.74677     0.75123
    0.75706     0.76381     0.76691     0.77683     0.78975     0.79474
    0.80353     0.81530     0.82675     0.83721     0.84401     0.85604
    0.86820     0.87443     0.88043     0.88934     0.89261     0.89656
    0.91704     0.92033     0.92569     0.94601     0.95302     0.95809
    0.96430     0.96731     0.99123     1.00273     1.01099     1.01783
    1.03712     1.04280     1.04953     1.07173     1.07454     1.07721
    1.08255     1.09108     1.09253     1.10507     1.11238     1.11465
    1.11976     1.13058     1.13871     1.14096     1.14362     1.15450
    1.17020     1.17222     1.18206     1.18617     1.19077     1.20587
    1.20842     1.21191     1.21617     1.22175     1.22944     1.23380
    1.24394     1.24889     1.25643     1.26843     1.27159     1.27671
    1.28857     1.29339     1.30200     1.31207     1.31645     1.32347
    1.33669     1.34305     1.35643     1.36622     1.36854     1.37433
    1.38690     1.39505     1.39928     1.40651     1.41055     1.41687
    1.42296     1.42799     1.43759     1.44743     1.45044     1.45504
    1.46548     1.47405     1.48655     1.49010     1.51091     1.51882
    1.52998     1.54060     1.54504     1.55344     1.55578     1.55892
    1.56361     1.57129     1.57976     1.58735     1.59138     1.59427
    1.60568     1.60917     1.61972     1.62695     1.62880     1.63397
    1.64097     1.64612     1.65037     1.65732     1.65953     1.66171
    1.67037     1.67131     1.67700     1.68568     1.68997     1.69319
    1.69796     1.70600     1.70782     1.71944     1.72122     1.73156
    1.73412     1.73944     1.74246     1.74787     1.75437     1.76161
    1.76638     1.77242     1.77404     1.78548     1.79015     1.79986
    1.80861     1.81429     1.81534     1.82554     1.82812     1.83289
    1.83506     1.84526     1.84737     1.86199     1.86691     1.87500
    1.87747     1.88739     1.89244     1.90644     1.91006     1.91895
    1.92808     1.94119     1.94307     1.95002     1.96190     1.97141
    1.97862     1.98771     1.99878     1.99967     2.00951     2.01169
    2.02669     2.02888     2.04013     2.04383     2.05163     2.07038
    2.08666     2.09393     2.10837     2.12477     2.12920     2.14455
    2.14828     2.15064     2.15973     2.16578     2.17215     2.19052
    2.19804     2.20607     2.20889     2.20988     2.22694     2.23763
    2.24484     2.26180     2.27432     2.28721     2.29254     2.29818
    2.30896     2.32137     2.32527     2.33896     2.35468     2.35929
    2.36867     2.39519     2.40073     2.41109     2.43364     2.44113
    2.46126     2.46856     2.47428     2.48423     2.49162     2.49659
    2.50236     2.50904     2.52248     2.52749     2.54349     2.55559
    2.55790     2.57405     2.58410     2.59425     2.60461     2.62214
    2.63219     2.64988     2.65768     2.66498     2.67385     2.67722
    2.67993     2.69185     2.69933     2.71040     2.71481     2.71899
    2.72429     2.73524     2.73750     2.74594     2.74857     2.76389
    2.77244     2.77751     2.80424     2.82012     2.83569     2.84970
    2.87521     2.88275     2.88971     2.90540     2.91249     2.91877
    2.94278     2.95549     2.95654     2.97953     2.99321     3.00193
    3.01276     3.01812     3.02629     3.04440     3.05841     3.06963
    3.09684     3.10709     3.11517     3.12012     3.14545     3.16742
    3.17345     3.18089     3.18695     3.19687     3.20751     3.22819
    3.23755     3.26211     3.29872     3.34252     3.34938     3.36279
    3.38193     3.38348     3.41684     3.44134     3.44886     3.46182
    3.46760     3.47217     3.47745     3.48789     3.49544     3.50891
    3.54490     3.57029     3.57393     3.61702     3.64088     3.68156
    3.86089
 
 Beta MOs
 -- Occupied --
 -256.12370   -30.03129   -25.89974   -25.89833   -25.89731   -19.16273
  -19.14001   -19.13185   -19.12002   -19.10472   -19.10340   -19.09690
  -19.09557   -19.09544   -19.08687   -19.08640   -19.08146   -19.07569
  -14.36679   -14.34467   -10.32594   -10.30302   -10.28128   -10.27714
  -10.27634   -10.27004   -10.25698   -10.23923   -10.23504   -10.22670
  -10.22114   -10.18584   -10.18181   -10.18021   -10.17896   -10.17655
   -3.39051    -2.15487    -2.15200    -2.15093    -1.07762    -1.04151
   -1.03009    -1.02430    -1.01810    -1.01669    -1.00430    -0.98473
   -0.96337    -0.94647    -0.94276    -0.93141    -0.92948    -0.92866
   -0.90287    -0.80530    -0.77073    -0.75753    -0.73312    -0.71884
   -0.67739    -0.66496    -0.64130    -0.60949    -0.60234    -0.59298
   -0.55630    -0.54903    -0.54209    -0.52986    -0.52268    -0.49855
   -0.49343    -0.48867    -0.48653    -0.48230    -0.46977    -0.46477
   -0.46156    -0.45724    -0.44626    -0.44392    -0.43781    -0.43428
   -0.43138    -0.42574    -0.41807    -0.41550    -0.40892    -0.40610
   -0.40513    -0.40067    -0.39553    -0.39220    -0.38784    -0.38707
   -0.38393    -0.37889    -0.37321    -0.36948    -0.36695    -0.36103
   -0.35522    -0.35295    -0.35038    -0.34669    -0.33322    -0.33127
   -0.32336    -0.29784    -0.29294    -0.29025    -0.28071    -0.27683
   -0.27452    -0.27345    -0.27160    -0.26703    -0.26200    -0.25391
   -0.25296    -0.24425    -0.24354    -0.23580    -0.23361    -0.22710
   -0.21751    -0.21073
 -- Virtual --
   -0.06533    -0.06115    -0.05908    -0.02530    -0.01974    -0.00284
    0.00721     0.02370     0.03929     0.04371     0.04949     0.05847
    0.06273     0.06859     0.07917     0.09215     0.09745     0.10263
    0.10688     0.10979     0.11838     0.12698     0.13381     0.13974
    0.14144     0.14662     0.15236     0.15782     0.16586     0.17153
    0.17507     0.18042     0.18219     0.18286     0.19374     0.20034
    0.20525     0.21002     0.21328     0.22702     0.22959     0.23561
    0.24145     0.24593     0.25636     0.25829     0.26379     0.26965
    0.27556     0.28062     0.28779     0.29485     0.29812     0.30564
    0.32170     0.32993     0.34342     0.34707     0.35515     0.35953
    0.36889     0.37532     0.37963     0.38695     0.40348     0.40902
    0.41424     0.42760     0.43365     0.43532     0.44314     0.45292
    0.45499     0.46466     0.47376     0.48064     0.48366     0.48684
    0.48896     0.49939     0.50231     0.51141     0.51885     0.52096
    0.52825     0.53263     0.53563     0.54262     0.54934     0.55106
    0.55679     0.55878     0.56958     0.58048     0.58220     0.58703
    0.59333     0.60077     0.60296     0.60863     0.61153     0.62165
    0.62417     0.62520     0.63287     0.63808     0.64076     0.64358
    0.64453     0.64878     0.65309     0.65739     0.65926     0.66343
    0.66768     0.67541     0.67873     0.68236     0.69124     0.69319
    0.69838     0.70068     0.70562     0.70773     0.71749     0.72444
    0.72818     0.73323     0.74039     0.74879     0.75295     0.76046
    0.76588     0.76878     0.77853     0.79194     0.79830     0.81175
    0.81893     0.83212     0.84422     0.84909     0.86160     0.87539
    0.87874     0.88399     0.89360     0.89485     0.90712     0.92042
    0.92545     0.92691     0.94863     0.95677     0.96031     0.96687
    0.97192     0.99541     1.00629     1.01253     1.02292     1.03863
    1.04448     1.05102     1.07496     1.07586     1.07935     1.08440
    1.09343     1.09563     1.10668     1.11448     1.11690     1.12139
    1.13426     1.14110     1.14356     1.14682     1.15692     1.17201
    1.17424     1.18301     1.18823     1.19308     1.20846     1.21115
    1.21371     1.21938     1.22465     1.23339     1.23662     1.24723
    1.25324     1.26217     1.27271     1.27830     1.28208     1.29285
    1.29810     1.30460     1.31600     1.32530     1.33770     1.34426
    1.34892     1.36278     1.36993     1.37412     1.37802     1.39257
    1.40074     1.40404     1.41013     1.41542     1.42529     1.42939
    1.43174     1.43923     1.45178     1.45808     1.46459     1.47157
    1.48965     1.49256     1.49609     1.51585     1.53014     1.53638
    1.54503     1.54901     1.55704     1.55803     1.56628     1.56957
    1.57481     1.58204     1.59242     1.59385     1.60165     1.61052
    1.61170     1.62333     1.62810     1.63374     1.63874     1.64429
    1.64977     1.65533     1.65889     1.66340     1.66595     1.67322
    1.67515     1.68249     1.68856     1.69289     1.69625     1.70209
    1.70834     1.72086     1.72402     1.73067     1.73451     1.74101
    1.74249     1.74666     1.75164     1.76163     1.76418     1.76795
    1.77672     1.77771     1.78713     1.79274     1.80310     1.81261
    1.81648     1.81817     1.82936     1.83228     1.83658     1.84038
    1.84826     1.85404     1.86501     1.87087     1.87691     1.87962
    1.89051     1.89995     1.90799     1.91270     1.92439     1.93255
    1.94454     1.94875     1.95628     1.96310     1.97428     1.98382
    1.99038     2.00214     2.00715     2.01143     2.01830     2.03064
    2.03328     2.04373     2.04703     2.05732     2.07585     2.09245
    2.09713     2.11083     2.12773     2.13194     2.14870     2.15168
    2.15473     2.16426     2.16831     2.17472     2.19500     2.20373
    2.21018     2.21097     2.21521     2.22865     2.23882     2.24974
    2.26435     2.27898     2.29081     2.29543     2.30048     2.31053
    2.32509     2.32838     2.34369     2.36221     2.36737     2.37025
    2.39746     2.40456     2.41391     2.43597     2.44231     2.46264
    2.47086     2.47571     2.48648     2.49254     2.49786     2.50340
    2.51375     2.52447     2.52929     2.54869     2.55790     2.56567
    2.57861     2.58623     2.59949     2.60661     2.62421     2.64416
    2.65440     2.66259     2.66801     2.67788     2.67990     2.68514
    2.69644     2.70264     2.71364     2.72028     2.72492     2.73069
    2.73700     2.74279     2.75025     2.75553     2.77296     2.78639
    2.79311     2.81223     2.82795     2.84266     2.86665     2.88333
    2.89448     2.89756     2.91651     2.92041     2.92411     2.94965
    2.96161     2.98155     2.98898     2.99869     3.02079     3.02640
    3.03322     3.06747     3.07820     3.09112     3.11160     3.11441
    3.12955     3.13886     3.14714     3.16736     3.17657     3.18618
    3.18718     3.19813     3.21251     3.23696     3.26175     3.28729
    3.29898     3.33821     3.35446     3.35667     3.36352     3.38385
    3.39196     3.42566     3.44572     3.45533     3.46335     3.47078
    3.47994     3.48903     3.50190     3.51497     3.53160     3.57221
    3.58157     3.62095     3.64596     3.66571     3.77330     3.86478
 --------------------------------------------------------------
 
          Ground-State Mulliken Net Atomic Charges

     Atom                 Charge (a.u.)    Spin (a.u.)
  --------------------------------------------------------
      1 C                     0.021409       0.000613
      2 C                     0.145446       0.000518
      3 N                    -0.205678       0.004569
      4 O                    -0.371000       0.001219
      5 C                     0.096953       0.005714
      6 C                     0.058155       0.000635
      7 C                     0.068735       0.004063
      8 C                     0.249592       0.005374
      9 O                    -0.495365       0.156882
     10 H                     0.022437      -0.000114
     11 H                     0.014899       0.000149
     12 H                     0.015891       0.000246
     13 H                     0.036626       0.000084
     14 C                     0.224712       0.000093
     15 O                    -0.391303       0.000157
     16 N                    -0.141739       0.000164
     17 C                     0.012664       0.000129
     18 H                     0.129596      -0.000038
     19 C                     0.112876       0.000145
     20 C                     0.135404       0.001488
     21 O                    -0.334991       0.000001
     22 C                     0.192033       0.000399
     23 C                     0.154133       0.003287
     24 O                    -0.287466       0.001293
     25 C                    -0.107979       0.005662
     26 C                     0.252840       0.005835
     27 O                    -0.528180       0.194330
     28 C                     0.117613       0.004104
     29 C                     0.159189       0.006134
     30 O                    -0.380904       0.019831
     31 O                    -0.415587       0.099079
     32 H                     0.043990       0.000166
     33 H                     0.004665       0.000306
     34 H                     0.069862       0.001038
     35 H                     0.042323       0.000221
     36 H                     0.013252      -0.000045
     37 H                     0.014684      -0.000114
     38 H                     0.021162       0.001509
     39 O                    -0.417938       0.084552
     40 O                    -0.364500       0.016288
     41 H                     0.033354      -0.000086
     42 H                     0.039673       0.000375
     43 H                     0.027925       0.000012
     44 H                     0.038514       0.000040
     45 O                    -0.391213       0.012630
     46 O                    -0.398304       0.083291
     47 H                     0.022542       0.002571
     48 Fe                    0.487481       4.209877
     49 O                    -0.283925       0.058239
     50 H                     0.229813       0.003347
     51 H                     0.205633       0.003738
  --------------------------------------------------------
  Sum of atomic charges =    -2.000000
  Sum of spin   charges =     5.000000

 -----------------------------------------------------------------
                    Cartesian Multipole Moments
 -----------------------------------------------------------------
    Charge (ESU x 10^10)
                -9.6064
    Dipole Moment (Debye)
         X      17.0985      Y      18.0559      Z      -0.7039
       Tot      24.8770
    Quadrupole Moments (Debye-Ang)
        XX    -327.1652     XY     -52.7096     YY    -250.4190
        XZ      -6.9380     YZ      37.8185     ZZ    -202.3437
    Octopole Moments (Debye-Ang^2)
       XXX    2397.9741    XXY     493.6837    XYY     579.3901
       YYY     528.6041    XXZ    -407.9420    XYZ     -74.4743
       YYZ    -444.6524    XZZ     478.6683    YZZ     296.1954
       ZZZ   -1012.8321
    Hexadecapole Moments (Debye-Ang^3)
      XXXX  -22798.9188   XXXY   -4618.3784   XXYY   -4154.3123
      XYYY   -2183.5042   YYYY   -5734.2615   XXXZ    4129.6955
      XXYZ     844.5977   XYYZ    1006.3735   YYYZ     856.4267
      XXZZ   -3792.6991   XYZZ   -1056.7335   YYZZ   -2176.4556
      XZZZ    2684.3335   YZZZ    1073.5338   ZZZZ   -5594.9365
 -----------------------------------------------------------------
 Calculating analytic gradient of the SCF energy
 Gradient of SCF Energy
            1           2           3           4           5           6
    1  -0.0051655  -0.0723469  -0.0179360   0.0983901   0.0132042  -0.0267238
    2  -0.0059832   0.0090264  -0.0182540  -0.0049302  -0.0229887   0.0143996
    3  -0.0156814   0.0255052   0.0051211  -0.0349596   0.0070793   0.0011115
            7           8           9          10          11          12
    1   0.0174930  -0.0860357   0.0099354  -0.0342811  -0.0142427   0.0150936
    2  -0.0188410  -0.0176021  -0.0045539   0.0313836   0.0083400   0.0376475
    3   0.0064100  -0.0987090  -0.0264970   0.0350234  -0.0489450  -0.0227555
           13          14          15          16          17          18
    1   0.0114906   0.0058014   0.0142043  -0.0169909   0.0068650   0.0033692
    2   0.0078107   0.0294484  -0.0217777  -0.0354230  -0.0107927   0.0076154
    3   0.0487466  -0.0413347   0.0626569   0.0130480   0.0158448  -0.0383895
           19          20          21          22          23          24
    1   0.0112506  -0.0136713   0.0100599   0.0049290   0.0104759   0.0067029
    2   0.0167729  -0.0224953  -0.0240118   0.0253429   0.0053698  -0.0348420
    3  -0.0240002   0.0264406  -0.0151512  -0.0673778   0.0055894   0.0832196
           25          26          27          28          29          30
    1   0.0522926   0.0979342  -0.0150382   0.0182727   0.0140158  -0.0317937
    2   0.0114879   0.0172854  -0.0172539  -0.0060767  -0.0972259   0.1147768
    3   0.0281774  -0.0761350  -0.0172732   0.0136908   0.0430693  -0.0804401
           31          32          33          34          35          36
    1   0.0191151   0.0161585  -0.0115920  -0.0130570   0.0027171  -0.0044517
    2   0.0281074  -0.0341438   0.0077633   0.0412832  -0.0176692  -0.0033438
    3   0.0389317  -0.0006310   0.0399496  -0.0056039  -0.0312513  -0.0446752
           37          38          39          40          41          42
    1   0.0010897  -0.0512575  -0.0301267   0.1121945   0.0421940  -0.0392230
    2  -0.0078697   0.0075830   0.0063260   0.0195553  -0.0159880   0.0125513
    3  -0.0517784   0.0138996   0.0438336   0.0853024   0.0105464  -0.0121676
           43          44          45          46          47          48
    1   0.0257399   0.0071471  -0.1307008   0.0244064  -0.0432064  -0.0119252
    2   0.0282979  -0.0265316  -0.0241011   0.0091189  -0.0128145  -0.0002042
    3  -0.0123900  -0.0159015   0.0495029   0.0511898   0.0176371  -0.0090067
           49          50          51
    1   0.0032883   0.0297923  -0.0358573
    2   0.0384157   0.0002483  -0.0302396
    3   0.0510951  -0.0208426  -0.0107246
 Max gradient component =       1.307E-01
 RMS gradient           =       3.706E-02
 Computing fast CPCM-SWIG gradient
 Updating gradient with PCM contributions...
 -- total gradient after adding PCM contribution --
---------------------------------------------------
  Atom         X              Y              Z     
---------------------------------------------------
   1      -0.003962      -0.008925      -0.006294
   2       0.006013      -0.004474      -0.003017
   3       0.002953      -0.001200      -0.004584
   4      -0.017137       0.004411       0.008492
   5      -0.003513      -0.001581      -0.004666
   6      -0.007483       0.006538      -0.001263
   7       0.006525      -0.007391       0.002395
   8      -0.009772      -0.000841       0.015868
   9       0.022339       0.012801       0.003522
  10      -0.002496       0.003132       0.001932
  11      -0.001840       0.001302      -0.003495
  12       0.002241       0.004108      -0.001982
  13       0.003219       0.002656       0.002565
  14       0.002154      -0.005639       0.015379
  15       0.007240       0.000882      -0.023694
  16      -0.005591      -0.007222       0.007986
  17       0.001648      -0.001196       0.008813
  18       0.000942       0.001020       0.001825
  19       0.000216       0.009886      -0.011941
  20      -0.003716      -0.010514       0.019349
  21       0.001688       0.014772       0.002672
  22       0.011771      -0.010483       0.012886
  23       0.008096       0.002219       0.003420
  24      -0.006222      -0.002135      -0.029066
  25       0.010830      -0.004709       0.002257
  26       0.001899       0.005896       0.015726
  27      -0.024614       0.001028      -0.003203
  28       0.011170       0.005645       0.004222
  29       0.004993       0.010049       0.004979
  30       0.004191      -0.014519       0.012948
  31      -0.019697       0.013020      -0.024848
  32       0.002874      -0.004023      -0.000413
  33       0.000290      -0.001997       0.005031
  34      -0.002435       0.002960      -0.003387
  35      -0.001242      -0.003228      -0.004194
  36      -0.001215      -0.000632      -0.004808
  37      -0.000645      -0.000584      -0.003813
  38      -0.003299       0.001716      -0.000748
  39       0.027606       0.006223       0.000885
  40      -0.018907      -0.003943      -0.009923
  41       0.002342      -0.002102       0.001572
  42      -0.003524       0.001085      -0.002825
  43       0.001951       0.002463      -0.002641
  44       0.000736      -0.003124      -0.002417
  45       0.019241       0.004169      -0.001164
  46      -0.026081      -0.010210      -0.007090
  47      -0.003134      -0.003312      -0.000167
  48      -0.002716       0.004686      -0.001591
  49       0.007610      -0.019409       0.004276
  50      -0.019675       0.000063       0.003209
  51       0.016138       0.010665       0.001023
---------------------------------------------------
 Number of fixed atoms: 0
 Gradient time:  CPU 3971.28 s  wall 300.13 s

 *****************************************************
             Starting BFGS Algorithm
 *****************************************************
            LIBOPT3 RUN PARAMETERS

  Geometry Optimization Coordinates :
	Delocalized Natural Internal Coordinates

  Step Length Selection Method :
	Eigenvector Following Algorithm

  Step Length Limiter :
	Root-Mean-Square of Gradient

  Convergence Criteria :
	Max Gradient Component    	3.00000000e-04
	Max Displacement Component	1.20000000e-03
	Absolute Energy Difference	1.00000000e-06

  Initial Hessian :
	Approximate Hessian - Model Internal Coordinate

  Type of Verification :
	Verify with final updated Hessian
 *****************************************************

	OPTIMIZATION CYCLE:	1

 Scaling Magnitude of Eigenvalues
 	Minimum: -25.00000000	 Maximum: 25.00000000
 147 Hessian Eigenvalues to form next step
   0.00200000   0.00376162   0.00395239   0.00426906   0.00468591
   0.00527822   0.00552451   0.00570646   0.00597062   0.00708868
   0.00730171   0.00827532   0.00874283   0.00886814   0.00921979
   0.00963919   0.01030250   0.01138266   0.01237679   0.01294184
   0.01495108   0.01758483   0.02225299   0.02265611   0.02541650
   0.02714956   0.02978536   0.03191910   0.03474547   0.03559662
   0.04172878   0.04241391   0.04484440   0.04639205   0.04956736
   0.05106446   0.05285420   0.05410266   0.05530357   0.05548346
   0.05555882   0.05581267   0.05750556   0.05976603   0.05994562
   0.06611329   0.06705655   0.07002098   0.07586698   0.07720711
   0.07975978   0.08120179   0.08332740   0.08862933   0.09164331
   0.09199846   0.09405249   0.09764790   0.09899671   0.10009593
   0.10851246   0.11136189   0.11429134   0.11437798   0.11784452
   0.12915465   0.13128831   0.13481307   0.14535382   0.15230869
   0.15538427   0.15946716   0.16000000   0.16000000   0.16000000
   0.16000000   0.16000000   0.16210072   0.16720402   0.17003877
   0.17183466   0.18050010   0.18680470   0.18702307   0.19822265
   0.20181691   0.20630845   0.21397941   0.21597060   0.21838564
   0.22808128   0.23923827   0.24198920   0.24858685   0.24903235
   0.24974307   0.24987021   0.24992295   0.25126536   0.25427232
   0.25726669   0.25942684   0.26890615   0.27291681   0.27766159
   0.28218173   0.28434783   0.28467362   0.29027507   0.30427017
   0.31001731   0.32262662   0.33915796   0.33965387   0.34144956
   0.34164710   0.34185442   0.34312125   0.34364161   0.34407322
   0.34422601   0.34426277   0.34503289   0.34522679   0.34711867
   0.34753277   0.34836654   0.34986433   0.35243035   0.35658647
   0.36087465   0.42758162   0.43007807   0.45088321   0.46150073
   0.47939931   0.48488058   0.55002131   0.55364390   0.55998087
   0.58247474   0.77047336   0.82485885   0.83853470   0.84038613
   0.84737902   0.88525254

 Minimum Search taking a RFO step
 Searching for Lambda that minimizes along all modes
	Value of Lambda   -0.03085255
	Norm  of Stepsize  0.49534586
	RMS   of Stepsize  0.04085544

	Performing Iterative Coordinate Back-Transformation

	  Starting from Previous Position

	  iter:	0	rms: 1.2402382889e-01	maxdev: 4.4091206490e-01
	  iter:	1	rms: 6.5795634055e-03	maxdev: 3.0773236751e-02
	  iter:	2	rms: 2.2277285976e-05	maxdev: 6.9495904353e-05
	  iter:	3	rms: 2.2551708177e-10	maxdev: 1.0271631403e-09	 Success!

	Finished Iterative Coordinate Back-Transformation
 ----------------------------------------------------------------
             Standard Nuclear Orientation (Angstroms)
    I     Atom           X                Y                Z
 ----------------------------------------------------------------
    1      C      -5.9376724890    -4.1238511563     1.7918736267
    2      C      -6.5457679968    -2.8126758997     2.2807289107
    3      N      -5.6091074418    -1.8286431194     2.1619235076
    4      O      -7.6772371603    -2.6530976185     2.7510245244
    5      C      -4.3106026163    -2.3323264500     1.5854745008
    6      C      -5.8126446549    -0.5640315682     2.9019091721
    7      C      -4.4346454888    -3.8501169047     1.9368343562
    8      C      -4.2583522340    -2.2680405823     0.0191580569
    9      O      -3.2273248589    -1.6883863182     2.1247143144
   10      H      -3.7956798484    -4.4736699461     1.2963430082
   11      H      -4.1203198786    -3.9632124471     2.9864986588
   12      H      -6.3191386124    -4.9715207314     2.3761353512
   13      H      -6.2007628576    -4.2503277021     0.7327078087
   14      C      -4.9668574990     0.5829103867     2.3426169738
   15      O      -5.0424615342     0.8366687090     1.1191017902
   16      N      -4.2723008860     1.3338875130     3.2176003746
   17      C      -5.6435421011    -0.8186953654     4.4103338759
   18      H      -4.3098436911     1.0837480042     4.1992029281
   19      C      -3.3431610159     2.4040200418     2.8301597521
   20      C      -2.0348158497     2.3152948293     3.6390836640
   21      O      -0.9864681545     3.0779200516     2.9330089275
   22      C      -0.2270257106     2.3976114801     1.9999037071
   23      C       0.8061650629     1.3918076424     2.4945886679
   24      O      -0.3384428632     2.7174913671     0.8284534966
   25      C       0.3771163438    -0.0175222671     1.9747589182
   26      C       0.7910963703    -0.1988714723     0.4662769604
   27      O      -1.0206274321    -0.0539758853     2.1458735699
   28      C       1.0072285450    -1.1901922603     2.7482860536
   29      C       0.3144393833    -2.5553477102     2.4917949526
   30      O       0.5625019406    -3.4939473511     3.2572030311
   31      O      -0.4842356637    -2.6648670163     1.4636492408
   32      H      -3.8068775571     3.3973744762     2.9349495910
   33      H      -3.1004570540     2.2371705213     1.7823089971
   34      H      -1.7110630635     1.2721257555     3.6999661696
   35      H      -2.1175757825     2.7868725987     4.6259472857
   36      H       0.8267341650     1.4020603262     3.5917239701
   37      H       0.9568051932    -1.0095016753     3.8333443468
   38      H       2.0684831012    -1.2940534689     2.4707552425
   39      O      -3.0378275024    -2.1625991188    -0.4445989187
   40      O      -5.2571423008    -2.4156387138    -0.6886105215
   41      H      -6.8553925278    -0.2573115143     2.7177415661
   42      H      -4.6079972469    -1.1089029909     4.6392686416
   43      H      -6.3166985883    -1.6353268911     4.7017984675
   44      H      -5.9227728803     0.0683705977     4.9999773406
   45      O       1.9613929760     0.0266172237     0.1234343290
   46      O      -0.1362321870    -0.6486602755    -0.3206976125
   47      H       1.7931232256     1.6506273357     2.0887390043
   48      Fe     -1.7806842507    -1.2296082164     0.8334447399
   49      O      -2.4995203789     0.5101482417    -0.2270955101
   50      H      -3.4035402454     0.7513008088     0.1485130997
   51      H      -1.8666160023     1.2380048263    -0.0754929099
 ----------------------------------------------------------------
 Nuclear Repulsion Energy =        4509.69994578 hartrees
 There are      133 alpha and      128 beta electrons
 No default van der Waals radius is available for Z = 26
	Found R = 2.4400 A in the $van_der_waals section
 Discretize the solute cavity surface with Lebedev spheres
	Using 110 Lebedev grid points for each H atom
	Using 194 Lebedev grid points for other atoms
	Atomic van der Waals radii (Bondi set) will be scaled by 1.20
 Using smooth SwiG surface discretization
 Remove points where switching function is < 1.0e-08
 Keep 3005 surface tesserae and discard 5293 interior tesserae
 Molecular Surface Area = 398.150 Angst**2

 Applying Cartesian multipole field
    Component          Value
    ---------          -----
     (2,0,0)        1.00000E-12
     (0,2,0)        2.00000E-11
     (0,0,2)       -3.00000E-11
 Nucleus-field energy     =-3.9084982859e-08 hartrees
 Read the previous MOs as SCF guess

 -----------------------------------------------------------------------
  General SCF calculation program by
  Eric Jon Sundstrom, Paul Horn, Yuezhi Mao, Dmitri Zuev, Alec White,
  David Stuck, Shaama M.S., Shane Yost, Joonho Lee, David Small,
  Daniel Levine, Susi Lehtola, Hugh Burton, Evgeny Epifanovsky,
  Bang C. Huynh
 -----------------------------------------------------------------------
 Requested basis set is non-standard
 There are 258 shells and 572 basis functions
 Exchange:     0.2000 Hartree-Fock + 0.0800 Slater + 0.7200 B88
 Correlation:  0.1900 VWN1RPA + 0.8100 LYP
 Using SG-1 standard quadrature grid
 A cutoff of  1.0D-12 yielded  29634 shell pairs
 There are    136586 function pairs (    153051 Cartesian)
 Smallest overlap matrix eigenvalue = 2.64E-04
 A unrestricted SCF calculation will be
 performed using DIIS
 SCF converges when DIIS error is below 1.0e-08
 ---------------------------------------
  Cycle       Energy         DIIS error
 ---------------------------------------
    1   -2972.9844545798      8.73e-04  
    2   -2972.9668962239      1.78e-04  
    3   -2972.9605028468      3.04e-04  
    4   -2972.9711390434      8.15e-05  
    5   -2972.9717382279      3.32e-05  
    6   -2972.9718453419      1.36e-05  
    7   -2972.9718676319      3.69e-06  
    8   -2972.9718692935      1.26e-06  
    9   -2972.9718695142      5.46e-07  
   10   -2972.9718695593      2.69e-07  
   11   -2972.9718695749      1.32e-07  
   12   -2972.9718695783      6.13e-08  
   13   -2972.9718695792      2.25e-08  
   14   -2972.9718695793      9.79e-09  Convergence criterion met
 ---------------------------------------
 SCF time:   CPU 20388.70s  wall 1463.00s 
<S^2> =          8.756858011

************** Final PCM Free Energy Summary **************
 G_electrostatic  =      -0.28665923 hartree =    -179.88138529 kcal/mol
 G_cavitation     =       0.00000000 hartree =       0.00000000 kcal/mol
 G_dispersion     =       0.00000000 hartree =       0.00000000 kcal/mol
 G_repulsion      =       0.00000000 hartree =       0.00000000 kcal/mol
 --------------------------------------------------
 Non-electrostatic Free Energy =       0.00000000 hartree =       0.00000000 kcal/mol
 Total                         =      -0.28665923 hartree =    -179.88138529 kcal/mol
 --------------------------------------------------
 SCF Energy (H0 + V/2)                       =   -2972.97186958 
 Solute Internal Energy (H0)                 =   -2972.68521035 
 Total Free Energy (H0 + V/2 + non-elec)     =   -2972.97186958 hartree
                                             = -1865568.01428397 kcal/mol
***********************************************************

 SCF   energy = -2972.97186958
 Total energy = -2972.97186958
 
 --------------------------------------------------------------
 
                    Orbital Energies (a.u.)
 --------------------------------------------------------------
 
 Alpha MOs
 -- Occupied --
 -256.13500   -30.13335   -25.98688   -25.98517   -25.98298   -19.16241
  -19.15729   -19.13640   -19.11383   -19.11053   -19.10147   -19.10143
  -19.10124   -19.09439   -19.08762   -19.08476   -19.08471   -19.08419
  -14.36233   -14.34391   -10.32096   -10.29582   -10.27791   -10.27584
  -10.27320   -10.26878   -10.25725   -10.24006   -10.23315   -10.22793
  -10.22384   -10.18789   -10.18162   -10.17952   -10.17876   -10.17564
   -3.61570    -2.39257    -2.38887    -2.38624    -1.08499    -1.04385
   -1.03559    -1.03523    -1.02815    -1.02413    -1.01375    -1.00823
   -0.97591    -0.96220    -0.95223    -0.94251    -0.94094    -0.92745
   -0.90829    -0.80437    -0.76835    -0.75696    -0.73290    -0.71680
   -0.67605    -0.66299    -0.64131    -0.61058    -0.60146    -0.58795
   -0.55827    -0.54940    -0.54360    -0.53469    -0.52757    -0.50613
   -0.49716    -0.49279    -0.49051    -0.48874    -0.47638    -0.47150
   -0.46713    -0.46128    -0.45576    -0.45095    -0.44850    -0.44427
   -0.43788    -0.43255    -0.43117    -0.42363    -0.42249    -0.41916
   -0.41274    -0.41175    -0.40525    -0.40360    -0.40094    -0.39633
   -0.39342    -0.38950    -0.38631    -0.38567    -0.38231    -0.37904
   -0.37627    -0.37311    -0.36707    -0.36445    -0.36079    -0.35804
   -0.35005    -0.34783    -0.34289    -0.33235    -0.33001    -0.32443
   -0.29521    -0.29099    -0.28192    -0.28138    -0.27143    -0.26754
   -0.26423    -0.26268    -0.26158    -0.25914    -0.25693    -0.24972
   -0.24598    -0.24072    -0.23297    -0.22684    -0.21802    -0.21252
   -0.20013
 -- Virtual --
   -0.01615     0.01134     0.02574     0.03636     0.04145     0.04553
    0.05931     0.06186     0.06628     0.07402     0.09017     0.09373
    0.09845     0.10480     0.10811     0.11594     0.12510     0.13280
    0.13758     0.13957     0.14272     0.15032     0.15249     0.16250
    0.16783     0.17396     0.17732     0.17904     0.18273     0.19421
    0.19582     0.20432     0.20587     0.20858     0.21386     0.22501
    0.22892     0.23419     0.23853     0.24657     0.25577     0.26303
    0.26667     0.27632     0.28119     0.28278     0.29411     0.29719
    0.30137     0.31511     0.32381     0.33194     0.34690     0.35257
    0.35943     0.36726     0.37024     0.37694     0.37852     0.39926
    0.40753     0.41100     0.41750     0.43072     0.43721     0.44306
    0.45437     0.46212     0.46530     0.47139     0.47688     0.48224
    0.48762     0.49224     0.49572     0.50170     0.51193     0.51771
    0.51915     0.52484     0.53172     0.53783     0.54040     0.54972
    0.55072     0.55804     0.56375     0.57491     0.57688     0.58361
    0.58619     0.59428     0.60059     0.60306     0.60845     0.61263
    0.61754     0.62502     0.62766     0.63232     0.63259     0.63621
    0.64016     0.64574     0.64886     0.65271     0.65687     0.66250
    0.66406     0.66918     0.67196     0.67513     0.67716     0.67827
    0.68782     0.69574     0.69721     0.70185     0.70742     0.71443
    0.71822     0.72447     0.73125     0.73720     0.74741     0.74964
    0.75910     0.76083     0.76365     0.77566     0.78516     0.79198
    0.80631     0.81680     0.82481     0.83345     0.83901     0.85597
    0.86484     0.87193     0.87631     0.87849     0.88893     0.88950
    0.90792     0.91324     0.91943     0.94026     0.95045     0.95424
    0.95900     0.97156     0.98544     0.99877     1.00784     1.01652
    1.02897     1.03413     1.04601     1.05264     1.06068     1.06677
    1.07783     1.08436     1.08675     1.09113     1.09911     1.10780
    1.10967     1.11538     1.12671     1.13176     1.13538     1.14780
    1.16059     1.16462     1.17473     1.17980     1.18329     1.19188
    1.19493     1.20281     1.20643     1.20979     1.21661     1.22327
    1.23451     1.23889     1.24346     1.25374     1.26122     1.26301
    1.27403     1.28201     1.29080     1.29579     1.30828     1.31259
    1.31830     1.32334     1.33407     1.34862     1.35536     1.36128
    1.36781     1.38098     1.38370     1.39010     1.39446     1.40271
    1.41216     1.42045     1.42522     1.43309     1.43793     1.44502
    1.45259     1.45536     1.47173     1.48366     1.49284     1.50049
    1.51197     1.52453     1.52526     1.54172     1.54655     1.55181
    1.55615     1.56363     1.56871     1.57437     1.58055     1.58356
    1.60115     1.60215     1.60808     1.62044     1.62331     1.62835
    1.63198     1.64244     1.64326     1.65080     1.65372     1.66116
    1.66618     1.66756     1.67383     1.67992     1.68698     1.69235
    1.69532     1.69973     1.70669     1.70803     1.71241     1.71800
    1.72082     1.73452     1.73586     1.74481     1.74915     1.75480
    1.75863     1.76253     1.76590     1.77529     1.78009     1.79246
    1.79825     1.80864     1.81011     1.81555     1.82269     1.82847
    1.83162     1.84075     1.84902     1.85677     1.86512     1.87052
    1.87813     1.88718     1.89036     1.90207     1.91138     1.91853
    1.92281     1.93473     1.93942     1.94622     1.96811     1.97446
    1.98094     1.98651     1.99027     1.99384     2.00447     2.01508
    2.02097     2.03100     2.04227     2.04508     2.04940     2.06271
    2.07725     2.10168     2.10688     2.11756     2.12932     2.13844
    2.13896     2.14257     2.15343     2.15857     2.16122     2.16795
    2.18532     2.19247     2.19558     2.20959     2.22016     2.22085
    2.23961     2.25397     2.26063     2.27165     2.28322     2.29082
    2.30087     2.30593     2.31501     2.32241     2.34151     2.35039
    2.35927     2.37660     2.38215     2.39774     2.41025     2.43245
    2.43940     2.45199     2.46272     2.47110     2.47792     2.48905
    2.49471     2.50176     2.51768     2.51925     2.52899     2.53378
    2.54171     2.56700     2.57663     2.58400     2.59325     2.61662
    2.63120     2.64516     2.65534     2.66379     2.67199     2.67381
    2.68091     2.68892     2.69550     2.70190     2.71075     2.71553
    2.72073     2.73078     2.73840     2.74417     2.75004     2.76401
    2.76494     2.77681     2.79388     2.79786     2.82539     2.84503
    2.85160     2.86511     2.88822     2.90468     2.91414     2.93205
    2.94318     2.95498     2.96284     2.97062     2.98362     2.99223
    2.99707     3.01101     3.02356     3.05133     3.06481     3.06993
    3.08211     3.09149     3.12271     3.12696     3.13774     3.14184
    3.16655     3.17212     3.19271     3.19796     3.21626     3.23938
    3.23967     3.24819     3.32289     3.35606     3.38459     3.38907
    3.40838     3.41233     3.42157     3.44031     3.44886     3.46144
    3.47076     3.48032     3.48477     3.49695     3.49841     3.51388
    3.52986     3.55916     3.56987     3.57671     3.61444     3.64390
    3.80792
 
 Beta MOs
 -- Occupied --
 -256.13320   -30.03996   -25.90856   -25.90711   -25.90599   -19.16241
  -19.15530   -19.13638   -19.11384   -19.10756   -19.10139   -19.09855
  -19.09765   -19.09392   -19.08436   -19.08361   -19.08233   -19.07835
  -14.36233   -14.34373   -10.32097   -10.29582   -10.27788   -10.27577
  -10.27318   -10.26873   -10.25726   -10.24003   -10.23315   -10.22790
  -10.22384   -10.18778   -10.18161   -10.17940   -10.17876   -10.17549
   -3.39834    -2.16280    -2.15967    -2.15839    -1.08495    -1.04129
   -1.03465    -1.03213    -1.02503    -1.02376    -1.01039    -1.00776
   -0.96921    -0.95294    -0.94780    -0.93641    -0.93530    -0.92743
   -0.90432    -0.80404    -0.76728    -0.75501    -0.73265    -0.71624
   -0.67405    -0.66286    -0.64119    -0.60872    -0.60063    -0.58780
   -0.55578    -0.54877    -0.54145    -0.53345    -0.52188    -0.49765
   -0.49256    -0.48771    -0.48476    -0.48304    -0.47036    -0.46575
   -0.46282    -0.45672    -0.44830    -0.44428    -0.43920    -0.43808
   -0.43153    -0.42717    -0.41953    -0.41707    -0.41260    -0.40912
   -0.40629    -0.40338    -0.39513    -0.39302    -0.39146    -0.38804
   -0.38578    -0.37875    -0.37602    -0.37122    -0.36824    -0.36312
   -0.35865    -0.35506    -0.35097    -0.34925    -0.33792    -0.33240
   -0.33031    -0.30048    -0.29263    -0.29232    -0.28088    -0.27850
   -0.27266    -0.27098    -0.26978    -0.26372    -0.25898    -0.25549
   -0.25392    -0.24524    -0.24379    -0.23710    -0.23349    -0.22680
   -0.21608    -0.20994
 -- Virtual --
   -0.07308    -0.06913    -0.06801    -0.03513    -0.01709    -0.01205
    0.01178     0.02631     0.03901     0.04520     0.04841     0.06057
    0.06376     0.06713     0.07471     0.09065     0.09405     0.09908
    0.10535     0.10848     0.11629     0.12554     0.13313     0.13799
    0.14003     0.14294     0.15083     0.15285     0.16349     0.16974
    0.17516     0.17902     0.17942     0.18360     0.19490     0.19732
[...]
    3.41890     3.44038     3.46257     3.46909     3.48257     3.49003
    3.49574     3.50098     3.52074     3.52742     3.54649     3.56716
    3.58374     3.59036     3.60665     3.63260     3.74242     3.87112
 --------------------------------------------------------------
 
          Ground-State Mulliken Net Atomic Charges

     Atom                 Charge (a.u.)    Spin (a.u.)
  --------------------------------------------------------
      1 C                     0.016498       0.000543
      2 C                     0.144006       0.000534
      3 N                    -0.208357       0.005544
      4 O                    -0.359116       0.001231
      5 C                     0.097586       0.004037
      6 C                     0.044199       0.000394
      7 C                     0.062338       0.005835
      8 C                     0.220782       0.004949
      9 O                    -0.484975       0.170531
     10 H                     0.021500      -0.000218
     11 H                     0.015027       0.000102
     12 H                     0.022728       0.000313
     13 H                     0.035520       0.000100
     14 C                     0.208383       0.000077
     15 O                    -0.379039       0.000090
     16 N                    -0.135707       0.000054
     17 C                     0.006044       0.000199
     18 H                     0.123709      -0.000046
     19 C                     0.094582       0.000008
     20 C                     0.125156       0.002111
     21 O                    -0.275210       0.000100
     22 C                     0.171677       0.000006
     23 C                     0.072062       0.004892
     24 O                    -0.290663       0.000345
     25 C                    -0.098227       0.003426
     26 C                     0.226437       0.005447
     27 O                    -0.499467       0.214967
     28 C                     0.091031       0.007306
     29 C                     0.139787       0.001033
     30 O                    -0.371777       0.016834
     31 O                    -0.394506       0.110899
     32 H                     0.046045       0.000156
     33 H                     0.024882       0.000037
     34 H                     0.076388       0.000357
     35 H                     0.037193       0.000180
     36 H                     0.031962       0.000070
     37 H                     0.035898      -0.000024
     38 H                     0.007095       0.002065
     39 O                    -0.402937       0.079616
     40 O                    -0.356065       0.017206
     41 H                     0.034484      -0.000078
     42 H                     0.042904       0.000229
     43 H                     0.029832       0.000005
     44 H                     0.038502       0.000056
     45 O                    -0.373042       0.014777
     46 O                    -0.388962       0.079521
     47 H                     0.015971       0.002118
     48 Fe                    0.504209       4.196606
     49 O                    -0.223270       0.041788
     50 H                     0.190694       0.001792
     51 H                     0.186206       0.001882
  --------------------------------------------------------
  Sum of atomic charges =    -2.000000
  Sum of spin   charges =     5.000000

 -----------------------------------------------------------------
                    Cartesian Multipole Moments
 -----------------------------------------------------------------
    Charge (ESU x 10^10)
                -9.6064
    Dipole Moment (Debye)
         X      14.1552      Y      16.5164      Z       1.0593
       Tot      21.7780
    Quadrupole Moments (Debye-Ang)
        XX    -335.5851     XY     -49.2830     YY    -257.8301
        XZ     -12.9477     YZ      31.7388     ZZ    -189.9232
    Octopole Moments (Debye-Ang^2)
       XXX    2400.2052    XXY     481.3561    XYY     517.4691
       YYY     510.4732    XXZ    -408.5552    XYZ     -50.2667
       YYZ    -417.6521    XZZ     460.6464    YZZ     270.4269
       ZZZ    -946.3461
    Hexadecapole Moments (Debye-Ang^3)
      XXXX  -23296.2392   XXXY   -4446.2650   XXYY   -4217.9431
      XYYY   -2121.7597   YYYY   -6244.6166   XXXZ    4010.8071
      XXYZ     766.6848   XYYZ     862.5138   YYYZ     745.7708
      XXZZ   -3791.3072   XYZZ    -987.8523   YYZZ   -2040.6716
      XZZZ    2600.2510   YZZZ     891.8623   ZZZZ   -5198.2730
 -----------------------------------------------------------------
 Calculating analytic gradient of the SCF energy
 Gradient of SCF Energy
            1           2           3           4           5           6
    1  -0.0037205  -0.0802386  -0.0220068   0.1142833   0.0216378  -0.0201365
    2   0.0017759   0.0159465  -0.0171173  -0.0147007  -0.0175028   0.0088112
    3  -0.0103103   0.0281735   0.0091380  -0.0386218   0.0134698   0.0033846
            7           8           9          10          11          12
    1   0.0096737  -0.0793735  -0.0088580  -0.0272665  -0.0136707   0.0127833
    2  -0.0150473  -0.0133724  -0.0135855   0.0292334   0.0074267   0.0289359
    3   0.0050907  -0.1171761  -0.0305228   0.0312085  -0.0418706  -0.0236697
           13          14          15          16          17          18
    1   0.0128426  -0.0003157   0.0139555  -0.0114672   0.0052374   0.0000876
    2   0.0112943   0.0350418  -0.0270131  -0.0264165  -0.0094332   0.0090819
    3   0.0427366  -0.0625068   0.0875031   0.0084067   0.0086303  -0.0376642
           19          20          21          22          23          24
    1   0.0046874  -0.0077163   0.0284650   0.0402373   0.0089792  -0.0551527
    2   0.0100417  -0.0123388  -0.0358004   0.0793906   0.0028877  -0.0775746
    3  -0.0139064   0.0104640   0.0006817  -0.0777358   0.0074170   0.0941935
           25          26          27          28          29          30
    1   0.0188536   0.1040713   0.0091347   0.0180121   0.0420051  -0.0954584
    2   0.0121629   0.0271041  -0.0199371  -0.0103663  -0.1119481   0.1236498
    3   0.0292123  -0.0949141  -0.0140256   0.0185142   0.0135679  -0.0410744
           31          32          33          34          35          36
    1   0.0550570   0.0124051  -0.0033146  -0.0092773  -0.0014013   0.0064057
    2   0.0319198  -0.0252003  -0.0021594   0.0358977  -0.0132571   0.0014520
    3   0.0354365  -0.0080523   0.0371024  -0.0018000  -0.0253275  -0.0376191
           37          38          39          40          41          42
    1   0.0141690  -0.0490853  -0.0551925   0.1293442   0.0383400  -0.0343877
    2  -0.0013672  -0.0037666   0.0059100   0.0162497  -0.0141463   0.0100983
    3  -0.0461434   0.0002571   0.0443149   0.0961179   0.0063842  -0.0093463
           43          44          45          46          47          48
    1   0.0219346   0.0061468  -0.1487948   0.0408122  -0.0457240  -0.0132841
    2   0.0253979  -0.0222150  -0.0471174   0.0240407  -0.0060016  -0.0048359
    3  -0.0112099  -0.0135190   0.0547400   0.0571858   0.0026071  -0.0044899
           49          50          51
    1  -0.0080171   0.0508159  -0.0465172
    2   0.0494948  -0.0007976  -0.0402267
    3   0.0643257  -0.0304781  -0.0182799
 Max gradient component =       1.488E-01
 RMS gradient           =       4.213E-02
 Computing fast CPCM-SWIG gradient
 Updating gradient with PCM contributions...
 -- total gradient after adding PCM contribution --
---------------------------------------------------
  Atom         X              Y              Z     
---------------------------------------------------
   1      -0.000021      -0.000013       0.000010
   2       0.000016      -0.000011       0.000085
   3      -0.000012       0.000021      -0.000023
   4       0.000002      -0.000010      -0.000026
   5      -0.000015       0.000001       0.000009
   6       0.000013       0.000003      -0.000002
   7       0.000010       0.000005       0.000010
   8      -0.000003      -0.000031      -0.000002
   9      -0.000010       0.000037      -0.000001
  10       0.000002      -0.000010       0.000020
  11       0.000001       0.000005       0.000020
  12       0.000001       0.000003       0.000019
  13       0.000013      -0.000008       0.000013
  14       0.000021      -0.000044      -0.000013
  15       0.000013      -0.000004      -0.000002
  16      -0.000054       0.000052      -0.000012
  17      -0.000010       0.000021       0.000014
  18       0.000024      -0.000014      -0.000013
  19       0.000000      -0.000024       0.000005
  20      -0.000003       0.000001      -0.000047
  21      -0.000044       0.000035       0.000077
  22       0.000105      -0.000002      -0.000150
  23      -0.000047      -0.000002       0.000007
  24      -0.000026      -0.000036       0.000025
  25       0.000053       0.000040      -0.000020
  26       0.000084      -0.000012       0.000021
  27      -0.000033       0.000007       0.000024
  28       0.000006      -0.000013       0.000025
  29       0.000041       0.000024      -0.000003
  30      -0.000001       0.000008       0.000008
  31      -0.000008      -0.000052       0.000044
  32      -0.000003       0.000015      -0.000035
  33      -0.000008       0.000005      -0.000027
  34       0.000004       0.000006      -0.000018
  35      -0.000013       0.000015      -0.000014
  36      -0.000003       0.000007      -0.000010
  37      -0.000018       0.000023      -0.000001
  38      -0.000003      -0.000001       0.000002
  39       0.000035      -0.000023      -0.000006
  40       0.000015      -0.000004       0.000011
  41      -0.000004      -0.000004      -0.000006
  42      -0.000000       0.000009      -0.000002
  43      -0.000001       0.000009       0.000002
  44      -0.000001       0.000011      -0.000007
  45      -0.000046      -0.000013       0.000009
  46      -0.000106      -0.000039       0.000013
  47       0.000007       0.000012       0.000003
  48       0.000060       0.000015      -0.000015
  49      -0.000041       0.000006       0.000018
  50       0.000012       0.000001      -0.000032
  51      -0.000004      -0.000025      -0.000004
---------------------------------------------------
 Number of fixed atoms: 0
 Gradient time:  CPU 3118.16 s  wall 246.19 s

     Step 29	:
        Energy is -2972.9850458191
                            Maximum         Tolerance       Converged?
         Gradient           6.84074731e-05	3.00000000e-04	true
         Displacement       4.78670276e-03	1.20000000e-03	false
         Energy change      8.05630407e-07	1.00000000e-06	true

	 Optimization Converged in 29 cycles

 *****************************************************
             End of BFGS Algorithm
 *****************************************************
		----------------------------------
		   Verification of Optimization
		----------------------------------

 Eigenvalues of Hessian in Optimization Verification
   0.00050050   0.00135433   0.00269936   0.00350546   0.00388111
   0.00401316   0.00475863   0.00604140   0.00662631   0.00699333
   0.00787635   0.00849918   0.01069173   0.01187976   0.01311294
   0.01537608   0.01829801   0.01902911   0.02223567   0.02387929
   0.02761598   0.02906750   0.03127737   0.03325945   0.03515362
   0.03635953   0.03831654   0.04143074   0.04364875   0.04482820
   0.04600626   0.04985564   0.05079985   0.05273603   0.05344592
   0.05357730   0.05424035   0.05541981   0.05559869   0.05576410
   0.05669724   0.05951047   0.05977228   0.06128152   0.06259175
   0.06724933   0.06852278   0.07151257   0.07347963   0.07852699
   0.08046187   0.08139803   0.08281089   0.08687986   0.09138083
   0.09220952   0.09264491   0.09552102   0.09970194   0.10207619
   0.10505392   0.11130490   0.11350941   0.11675490   0.12320655
   0.12539641   0.13054744   0.13507868   0.14271373   0.14689729
   0.14916888   0.15552441   0.15954081   0.15984397   0.16005718
   0.16042740   0.16573360   0.17241173   0.17419025   0.17762646
   0.18329391   0.18769252   0.19345808   0.19957242   0.20738452
   0.21201605   0.21765907   0.22158259   0.23103430   0.23539682
   0.24742065   0.24832688   0.25016023   0.25050704   0.25251616
   0.25275668   0.25413553   0.25734827   0.25996023   0.26591237
   0.27070938   0.27343720   0.27782637   0.28093322   0.28169825
   0.28661724   0.28905303   0.30215294   0.30962185   0.32619821
   0.33836252   0.33932082   0.33989072   0.34117686   0.34167545
   0.34244955   0.34253427   0.34382003   0.34413491   0.34439582
   0.34498280   0.34510870   0.34675240   0.34730459   0.34754349
   0.34833549   0.35431617   0.35788487   0.36103960   0.37274458
   0.39872940   0.43365119   0.44862075   0.45249988   0.48788158
   0.49295775   0.54467721   0.55139618   0.55219919   0.57501732
   0.62165514   0.76130554   0.82445963   0.83814010   0.83847104
   0.84962105   0.88652505

 Found a minimum
		---------------------------------
		       End of Verification
		---------------------------------

 Final energy is -2972.985045819125

	******************************
	**  OPTIMIZATION CONVERGED  **
	******************************
 ----------------------------------------------------------------
             Standard Nuclear Orientation (Angstroms)
    I     Atom           X                Y                Z
 ----------------------------------------------------------------
    1      C      -6.0462079867    -4.1345770548     1.8289728481
    2      C      -6.6193207668    -2.7881959481     2.2577802629
    3      N      -5.6341635579    -1.8480821884     2.1653494212
    4      O      -7.7645264786    -2.5796802326     2.6662710455
    5      C      -4.3529209932    -2.3974810263     1.6126703937
    6      C      -5.7799955452    -0.5915977408     2.9097784324
    7      C      -4.5334483687    -3.9131097017     1.9404462284
    8      C      -4.2836754121    -2.3125110438     0.0482787377
    9      O      -3.2605983616    -1.7897013778     2.1640876979
   10      H      -3.9318984943    -4.5506959448     1.2766656391
   11      H      -4.1906893880    -4.0625757567     2.9774953033
   12      H      -6.4461858059    -4.9274984232     2.4773612676
   13      H      -6.3549420679    -4.3440184483     0.7934197944
   14      C      -4.9215925999     0.5278506636     2.3091485151
   15      O      -4.9539296784     0.7296397878     1.0806886447
   16      N      -4.2408923642     1.3121376132     3.1699976719
   17      C      -5.6190752004    -0.8192639530     4.4200053407
   18      H      -4.2784461030     1.0846486473     4.1571195886
   19      C      -3.4105984430     2.4460118552     2.7741965799
   20      C      -1.9912957685     2.3620937279     3.3679117442
   21      O      -1.1068678397     3.0516071192     2.4486851768
   22      C       0.0898820400     2.5741449198     2.0157567049
   23      C       0.7528996143     1.3646871161     2.6604920940
   24      O       0.6153534717     3.1878085379     1.1054213125
   25      C       0.3089970809     0.0157459066     2.0283267373
   26      C       0.7393948779    -0.1057883406     0.5254054599
   27      O      -1.0772501421    -0.0844301180     2.1455578050
   28      C       0.9728376045    -1.1751236181     2.7652162108
   29      C       0.6036169196    -2.5923193548     2.2680838445
   30      O       1.3558218451    -3.5237627132     2.5782446863
   31      O      -0.4885219103    -2.7729515022     1.5790813137
   32      H      -3.9025405707     3.3885671277     3.0660162023
   33      H      -3.3396418817     2.4345548232     1.6811038124
   34      H      -1.6998447724     1.3116284434     3.4539360762
   35      H      -1.9271121425     2.8789671452     4.3378984914
   36      H       0.5404768973     1.3292416884     3.7397215470
   37      H       0.6702314816    -1.1274578978     3.8267427385
   38      H       2.0704362814    -1.0999844232     2.7364862044
   39      O      -3.0596737997    -2.2445733974    -0.3945928962
   40      O      -5.2890761056    -2.4071812540    -0.6588817462
   41      H      -6.8179250119    -0.2633311610     2.7272896650
   42      H      -4.5931258407    -1.1279646928     4.6711516170
   43      H      -6.3115740786    -1.6108620081     4.7384861978
   44      H      -5.8789298268     0.0873390817     4.9900346432
   45      O       1.8661951970     0.2517510884     0.1594538946
   46      O      -0.1538764986    -0.6676019218    -0.2269842243
   47      H       1.8318136538     1.5013699711     2.5118413958
   48      Fe     -1.7798690276    -1.3632705647     0.9237946353
   49      O      -2.6594360292     0.4760132480    -0.2002903805
   50      H      -3.5302819782     0.6842038488     0.2273140294
   51      H      -2.0623559246     1.1726895474     0.1142015940
 ----------------------------------------------------------------
 Nuclear Repulsion Energy =        4477.44814297 hartrees
 There are      133 alpha and      128 beta electrons

Z-matrix Print:
$molecule
-2 6
Fe
O  1 1.903106
C  2 1.394797 1 111.176175
C  3 1.549794 2 109.303042 1 -78.704728 0
H  4 1.100543 3 111.242764 2 -177.111033 0
H  4 1.104844 3 107.840267 2 -59.857107 0
C  4 1.546580 3 116.681180 2 59.775827 0
O  7 1.236769 4 117.665652 3 161.387942 0
O  7 1.303886 4 119.786152 3 -20.441183 0
C  3 1.554453 2 108.177544 1 160.858233 0
H  10 1.097650 3 109.492223 2 -175.713623 0
H  10 1.100507 3 108.405860 2 65.413709 0
C  10 1.522519 3 113.127762 2 -58.024495 0
O  13 1.217133 10 121.953740 3 -93.583753 0
O  13 1.359267 10 121.841440 3 88.218060 0
C  15 1.450041 13 124.881788 10 -11.747574 0
H  16 1.093536 15 110.126425 13 -15.052831 0
H  16 1.100978 15 107.440365 13 106.538891 0
C  16 1.540766 15 106.958177 13 -133.550378 0
H  19 1.095453 16 108.921371 15 32.670100 0
H  19 1.102532 16 110.829548 15 -85.490229 0
N  19 1.460040 16 112.153503 15 151.426674 0
H  22 1.013692 19 117.344139 16 50.206078 0
C  22 1.348896 19 124.437706 16 -127.580338 0
O  24 1.245343 22 123.259234 19 -3.117853 0
C  24 1.533224 22 117.196278 19 -178.057815 0
H  26 1.103793 24 104.155552 22 110.026538 0
N  26 1.467718 24 111.760426 22 -136.768252 0
C  28 1.364878 26 118.920409 24 -158.100426 0
O  29 1.233629 28 125.173639 26 17.202874 0
C  28 1.499625 26 125.834684 24 40.532131 0
O  31 1.366245 28 111.799426 26 16.018030 0
C  29 1.524820 28 108.533035 26 -160.473034 0
H  33 1.099597 29 109.522414 28 140.844337 0
H  33 1.100705 29 109.096607 28 -100.665125 0
C  33 1.532943 29 102.878951 28 18.264904 0
H  36 1.099538 33 114.344112 29 -153.598048 0
H  36 1.102404 33 110.833008 29 83.240433 0
C  26 1.535745 24 115.772986 22 -8.092544 0
H  39 1.098914 26 109.011334 24 177.581995 0
H  39 1.100428 26 111.328326 24 -62.611189 0
H  39 1.101992 26 111.223568 24 59.708338 0
C  3 1.568051 2 110.352079 1 37.704175 0
O  43 1.237511 3 120.728044 2 163.525695 0
O  43 1.296016 3 113.630850 2 -20.075219 0
C  31 1.568227 28 112.675939 26 -108.573181 0
O  46 1.232830 31 122.143012 28 -32.030011 0
O  46 1.303430 31 112.534000 28 153.197741 0
H  25 1.660447 24 118.703564 22 61.304665 0
O  49 0.992251 25 168.437280 24 54.450627 0
H  50 0.969932 49 104.467754 25 -119.896515 0
$end

 -----------------------------------------------------------------------
                  END OF GEOMETRY OPTIMIZER USING LIBOPT3               
 -----------------------------------------------------------------------
 Total job time:  45239.80s(wall), 602954.41s(cpu) 
 Mon Sep  8 01:49:57 2025

        *************************************************************
        *                                                           *
        *  Thank you very much for using Q-Chem.  Have a nice day.  *
        *                                                           *
        *************************************************************


remove work dirs /scratch/cooksy_group/qchem642411.0 -- /scratch/cooksy_group/qchem642411.0
rm -rf /scratch/cooksy_group/qchem642411.0
rm -rf /scratch/cooksy_group/qchem642411
