You are running Q-Chem version: 6.2.0

#
# job setting
#
local host:  itcotck
current dir: /home/cooksy_group/sgardner/kupper
input file:  FeVF1_SSR_b3lypDBJ_ccpVDZ_PCM_h2o_OPT.in
output file: 
nprocs     : 1
nthreads   : 16
#
# qchem installation setting
#
QC:          /opt/qchem/6.2.0
QCAUX:       /opt/qchem/6.2.0/qcaux
QCPROG:      /opt/qchem/6.2.0/exe/qcprog.exe_s
QCPROG_S:    /opt/qchem/6.2.0/exe/qcprog.exe_s
PARALLEL:    -DSERIAL
QCMPI:       seq
#
# qchem directory setting
#
qcrun:       qchem642544
QCSCRATCH:   /scratch/cooksy_group
QCLOCALSCR:  
QCTMPDIR:    /scratch/cooksy_group
QCFILEPREF:  /scratch/cooksy_group/qchem642544
QCSAVEDIR:   
workdirs:    /scratch/cooksy_group/qchem642544
workdir0:    /scratch/cooksy_group/qchem642544
partmpdirs =  
#
# parallel setting
#
QCRSH:           ssh
QCMPI:           seq
QCMPIRUN:        
QCMACHINEFILE:   /opt/qchem/6.2.0/bin/mpi/machines


#
# env setting
#
exported envs:   QC QCAUX QCSCRATCH QCRUNNAME QCFILEPREF QCPROG QCPROG_S GUIFILE

Running Job 1 of 1 FeVF1_SSR_b3lypDBJ_ccpVDZ_PCM_h2o_OPT.in
qchem FeVF1_SSR_b3lypDBJ_ccpVDZ_PCM_h2o_OPT.in_642544.0 /scratch/cooksy_group/qchem642544/ 1
/opt/qchem/6.2.0/exe/qcprog.exe_s FeVF1_SSR_b3lypDBJ_ccpVDZ_PCM_h2o_OPT.in_642544.0 /scratch/cooksy_group/qchem642544/
                  Welcome to Q-Chem
     A Quantum Leap Into The Future Of Chemistry


 Q-Chem 6.2, Q-Chem, Inc., Pleasanton, CA (2024)

 E. Epifanovsky,  A. T. B. Gilbert,  Xintian Feng,  Joonho Lee,  Yuezhi Mao,  
 N. Mardirossian,  P. Pokhilko,  A. White,  M. Wormit,  M. P. Coons,  
 A. L. Dempwolff,  Zhengting Gan,  D. Hait,  P. R. Horn,  L. D. Jacobson,  
 I. Kaliman,  J. Kussmann,  A. W. Lange,  Ka Un Lao,  D. S. Levine,  Jie Liu,  
 S. C. McKenzie,  A. F. Morrison,  K. D. Nanda,  F. Plasser,  D. R. Rehn,  
 M. L. Vidal,  Zhi-Qiang You,  Ying Zhu,  Huseyin Aksu,  B. Alam,  
 B. Albrecht,  A. Aldossary,  E. Alguire,  J. H. Andersen,  
 J. E. Arias-Martinez,  V. Athavale,  D. Barton,  K. Begam,  A. Behn,  
 N. Bellonzi,  Y. A. Bernard,  E. J. Berquist,  H. Burton,  A. Carreras,  
 K. Carter-Fenk,  Mathew Chow,  Romit Chakraborty,  Chandrima Chakravarty,  
 Junhan Chen,  A. D. Chien,  K. D. Closser,  V. Cofer-Shabica,  L. Cunha,  
 S. Dasgupta,  Jia Deng,  Joseph Dickinson,  M. de Wergifosse,  
 M. Diedenhofen,  Hainam Do,  Wenjie Dou,  S. Ehlert,  Po-Tung Fang,  
 S. Fatehi,  Qingguo Feng,  Jonathan Fetherolf,  T. Friedhoff,  
 Thomas Froitzheim,  Sarai Folkestad,  B. Ganoe,  J. Gayvert,  Qinghui Ge,  
 G. Gidofalvi,  M. Gimferrer,  M. Goldey,  Montgomery Gray,  J. Gomes,  
 C. Gonzalez-Espinoza,  S. Gulania,  A. Gunina,  J. A. Gyamfi,  
 M. W. D. Hanson-Heine,  P. H. P. Harbach,  A. W. Hauser,  M. F. Herbst,  
 M. Hernandez Vera,  M. Hodecker,  Z. C. Holden,  S. Houck,  Xunkun Huang,  
 Kerwin Hui,  B. C. Huynh,  K. Ikeda,  M. Ivanov,  Nayanthara K. Jayadev,  
 Hyunjun Ji,  Zuxin Jin,  Hanjie Jiang,  Subrata Jana,  B. Kaduk,  
 S. Kaehler,  R. Kang,  K. Khistyaev,  Jaehoon Kim,  Yongbin Kim,  
 P. Klunzinger,  Z. Koczor-Benda,  Joong Hoon Koh,  D. Kosenkov,  
 Saikiran Kotaru,  L. Koulias,  T. Kowalczyk,  C. M. Krauter,  K. Kue,  
 A. Kunitsa,  T. Kus,  A. Landau,  K. V. Lawler,  D. Lefrancois,  S. Lehtola,  
 Rain Li,  Shaozhi Li,  Tao E. Li,  Yi-Pei Li,  Jiashu Liang,  M. Liebenthal,  
 Hung-Hsuan Lin,  You-Sheng Lin,  Fenglai Liu,  Kuan-Yu Liu,  Xiao Liu,  
 M. Loipersberger,  A. Luenser,  C. Malbon,  Aniket Mandal,  Manisha,  
 A. Manjanath,  P. Manohar,  E. Mansoor,  S. F. Manzer,  Shan-Ping Mao,  
 A. V. Marenich,  T. Markovich,  S. Mason,  F. Matz,  S. A. Maurer,  
 Samuel May,  Alexandra McIsaac,  P. F. McLaughlin,  M. F. S. J. Menger,  
 J.-M. Mewes,  S. A. Mewes,  P. Morgante,  Mohammad Mostafanejad,  
 Madhubani Mukherjee,  J. W. Mullinax,  Quyen Nguyen,  Avik Kumar Ojha,  
 K. J. Oosterbaan,  Eno Paenurk,  Xiaoliang Pan,  G. Paran,  V. Parravicini,  
 Alexander C. Paul,  Suranjan K. Paul,  F. Pavosevic,  Zheng Pei,  S. Prager,  
 E. I. Proynov,  E. Ramos,  B. Rana,  A. E. Rask,  A. Rettig,  R. M. Richard,  
 F. Rob,  E. Rossomme,  T. Scheele,  M. Scheurer,  M. Schneider,  
 P. E. Schneider,  Tim K. Schramm,  N. Sergueev,  S. M. Sharada,  
 Hengyuan Shen,  W. Skomorowski,  D. W. Small,  C. J. Stein,  
 Alistair J. Sterling,  Yingli Su,  Yu-Chuan Su,  E. J. Sundstrom,  
 J. Talbot,  Zhen Tao,  J. Thirman,  Hung-Yi Tsai,  T. Tsuchimochi,  
 N. M. Tubman,  C. Utku,  S. P. Veccham,  O. Vydrov,  Rahel Weiss,  
 J. Wenzel,  Jonathan Wong,  J. Witte,  H. Wu,  Yanze Wu,  A. Yamada,  
 Chou-Hsun Yang,  Kun Yao,  S. Yeganeh,  S. R. Yost,  Qi Yu,  A. Zech,  
 F. Zeller,  Chongxiao Zhao,  Igor Ying Zhang,  Xing Zhang,  Yu Zhang,  
 D. Zuev,  A. Aspuru-Guzik,  A. T. Bell,  N. A. Besley,  K. B. Bravaya,  
 B. R. Brooks,  D. Casanova,  Jeng-Da Chai,  Hsing-Ta Chen,  S. Coriani,  
 C. J. Cramer,  A. E. DePrince, III,  R. A. DiStasio Jr.,  A. Dreuw,  
 B. D. Dunietz,  T. R. Furlani,  W. A. Goddard III,  S. Grimme,  
 S. Hammes-Schiffer,  T. Head-Gordon,  W. J. Hehre,  Chao-Ping Hsu,  
 T.-C. Jagau,  Yousung Jung,  A. Klamt,  Jing Kong,  D. S. Lambrecht,  
 Xiangyuan Li,  WanZhen Liang,  N. J. Mayhall,  C. W. McCurdy,  J. B. Neaton,  
 T. Neudecker,  C. Ochsenfeld,  J. A. Parkhill,  R. Peverati,  
 V. A. Rassolov,  Haisheng Ren,  Yihan Shao,  L. V. Slipchenko,  
 R. P. Steele,  J. E. Subotnik,  A. J. W. Thom,  A. Tkatchenko,  
 D. G. Truhlar,  T. Van Voorhis,  Fan Wang,  T. A. Wesolowski,  K. B. Whaley,  
 H. L. Woodcock III,  P. M. Zimmerman,  S. Faraji,  P. M. W. Gill,  
 M. Head-Gordon,  J. M. Herbert,  A. I. Krylov

 Contributors to earlier versions of Q-Chem not listed above: 
 R. D. Adamson,  B. Austin,  R. Baer,  J. Baker,  G. J. O. Beran,  
 K. Brandhorst,  S. T. Brown,  E. F. C. Byrd,  Arup K. Chakraborty,  
 G. K. L. Chan,  Chun-Min Chang,  Yunqing Chen,  C.-L. Cheng,  
 Siu Hung Chien,  D. M. Chipman,  D. L. Crittenden,  H. Dachsel,  
 R. J. Doerksen,  A. D. Dutoi,  R. G. Edgar,  J. Fosso-Tande,  
 L. Fusti-Molnar,  D. Ghosh,  A. Ghysels,  A. Golubeva-Zadorozhnaya,  
 J. Gonthier,  M. S. Gordon,  S. R. Gwaltney,  G. Hawkins,  J. E. Herr,  
 A. Heyden,  S. Hirata,  E. G. Hohenstein,  G. Kedziora,  F. J. Keil,  
 C. Kelley,  Jihan Kim,  R. A. King,  R. Z. Khaliullin,  P. P. Korambath,  
 W. Kurlancheek,  A. Laurent,  A. M. Lee,  M. S. Lee,  S. V. Levchenko,  
 Ching Yeh Lin,  D. Liotard,  E. Livshits,  R. C. Lochan,  I. Lotan,  
 L. A. Martinez-Martinez,  P. E. Maslen,  N. Nair,  D. P. O'Neill,  
 D. Neuhauser,  E. Neuscamman,  C. M. Oana,  R. Olivares-Amaya,  R. Olson,  
 T. M. Perrine,  B. Peters,  P. A. Pieniazek,  A. Prociuk,  Y. M. Rhee,  
 J. Ritchie,  M. A. Rohrdanz,  E. Rosta,  N. J. Russ,  H. F. Schaefer III,  
 M. W. Schmidt,  N. E. Schultz,  S. Sharma,  N. Shenvi,  C. D. Sherrill,  
 A. C. Simmonett,  A. Sodt,  T. Stein,  D. Stuck,  K. S. Thanthiriwatte,  
 V. Vanovschi,  L. Vogt,  Tao Wang,  A. Warshel,  M. A. Watson,  
 C. F. Williams,  Q. Wu,  X. Xu,  Jun Yang,  W. Zhang,  Yan Zhao

   Please cite Q-Chem as follows:
  "Software for the frontiers of quantum chemistry:
   An overview of developments in the Q-Chem 5 package"
   J. Chem. Phys. 155, 084801 (2021)
   https://doi.org/10.1063/5.0055522 (open access)

 Q-Chem 6.2.0 for Intel X86 EM64T Linux

 Parts of Q-Chem use Armadillo 9.900.5 (Nocturnal Misbehaviour).
 http://arma.sourceforge.net/

 Q-Chem begins on Sun Sep  7 13:17:50 2025  

 Host: 
0

     Scratch files written to /scratch/cooksy_group/qchem642544//
 May224 |scratch|qcdevops|jenkins|workspace|build_RNUM -1
 Processing $rem in /opt/qchem/6.2.0/config/preferences:
 Processing $rem in /home/cooksy_group/.qchemrc:
 Symmetry turned off for PCM/SM12/SMD calculation

 Checking the input file for inconsistencies... 	...done.

--------------------------------------------------------------
User input:
--------------------------------------------------------------
$molecule
-2 6
C   -6.1522885   -3.6437501    1.3793803
C   -6.4024747   -2.1534825    1.6500844
N   -5.3016389   -1.6401142    2.3190397
O   -7.4285867   -1.5033133    1.3739727
C   -4.2043917   -2.7132709    2.4460125
C   -5.5605724   -0.3452252    3.0407475
O   -3.3170430   -2.7228999    1.3580405
C   -3.4336756   -2.5717523    3.7905186
H   -7.0861332   -4.2013057    1.4730304
H   -5.7489544   -3.7720723    0.3686900
C   -4.3615904    0.5382580    3.4417296
N   -4.2015456    1.6785725    2.7196574
C   -6.3411545   -0.6702539    4.3375030
C   -3.0923775    2.6274003    2.9983467
C   -1.7572082    1.9244777    3.3675248
O   -0.5427402    2.3511460    2.5774665
C   -0.4300540    1.8101799    1.3264435
C    0.9263432    1.1918456    1.0390956
O   -1.3843325    1.7684751    0.5237373
C    0.5589325   -0.3242722    1.1337192
C   -0.0152587   -0.7329969   -0.2690024
O   -2.9282657   -0.2505748    1.2728351
C    1.7174225   -1.2835489    1.4187503
C    1.2308838   -2.7242050    1.7833377
O    2.0913154   -3.5387001    2.1761383
O   -0.4174266   -0.4257906    2.1852406
H   -3.3882204    3.3004490    3.8100006
H   -2.9478247    3.2174983    2.0940473
H   -1.8133760    0.8536414    3.2234916
H   -1.4637074    2.1569776    4.3890701
H    1.6436112    1.4776176    1.8083953
H    2.3141322   -0.9263173    2.2661636
H    2.3716696   -1.3594678    0.5417311
H   -6.2072122    0.2130711    2.3601249
H   -5.7284194   -1.3536309    4.9266858
H   -7.2882295   -1.1485589    4.0731097
H   -6.5516076    0.2401851    4.9081839
O    0.6260025   -0.4253034   -1.2987085
O   -1.1252849   -1.4358391   -0.2341363
H    1.2838727    1.4087973    0.0322476
O   -3.6810109    0.3025291    4.4642959
H   -4.6732578    1.7648695    1.8247300
O   -3.9784960   -2.8502207    4.8799254
O   -2.1753571   -2.2170942    3.6256299
C   -5.0864651   -3.9832503    2.4352412
H   -4.4821478   -4.8583276    2.1920853
H   -5.5375592   -4.0917089    3.4245069
Fe   -1.6281803   -1.8320149    1.7229917
O   -0.0518903   -3.0311287    1.6434800
H   -3.6269687   -0.6483487    0.6978333
H   -2.4935371    0.5585893    0.8644638
$end

$rem
BASIS  =  gen
DFT_D  =  FALSE
GUI  =  2
JOB_TYPE  =  Optimization
MEM_TOTAL  =  30000
METHOD  =  B3LYP
SCF_CONVERGENCE  =  8
SCF_MAX_CYCLES  =  200
SOLVENT_METHOD  =  PCM
$end

$geom_opt
MAXITER  200
$end

$pcm
THEORY  CPCM
$end

$solvent
DIELECTRIC  78.39
$end

$van_der_waals
26   2.44
$end

!----------------------------------------------------------------------
! Basis Set Exchange
! Version 0.11
! https://www.basissetexchange.org
!----------------------------------------------------------------------
!   Basis set: cc-pVDZ
! Description: cc-pVDZ
!        Role: orbital
!     Version: 1  (Data from ccRepo/Grant Hill)
!----------------------------------------------------------------------

$rem
BASIS GEN
PURECART 11
$end

$basis
H     0
S   4   1.00
1.301000D+01           1.968500D-02
1.962000D+00           1.379770D-01
4.446000D-01           4.781480D-01
1.220000D-01           5.012400D-01
S   1   1.00
1.220000D-01           1.000000D+00
P   1   1.00
7.270000D-01           1.0000000
****
C     0
S   9   1.00
6.665000D+03           6.920000D-04
1.000000D+03           5.329000D-03
2.280000D+02           2.707700D-02
6.471000D+01           1.017180D-01
2.106000D+01           2.747400D-01
7.495000D+00           4.485640D-01
2.797000D+00           2.850740D-01
5.215000D-01           1.520400D-02
1.596000D-01          -3.191000D-03
S   9   1.00
6.665000D+03          -1.460000D-04
1.000000D+03          -1.154000D-03
2.280000D+02          -5.725000D-03
6.471000D+01          -2.331200D-02
2.106000D+01          -6.395500D-02
7.495000D+00          -1.499810D-01
2.797000D+00          -1.272620D-01
5.215000D-01           5.445290D-01
1.596000D-01           5.804960D-01
S   1   1.00
1.596000D-01           1.000000D+00
P   4   1.00
9.439000D+00           3.810900D-02
2.002000D+00           2.094800D-01
5.456000D-01           5.085570D-01
1.517000D-01           4.688420D-01
P   1   1.00
1.517000D-01           1.000000D+00
D   1   1.00
5.500000D-01           1.0000000
****
N     0
S   9   1.00
9.046000D+03           7.000000D-04
1.357000D+03           5.389000D-03
3.093000D+02           2.740600D-02
8.773000D+01           1.032070D-01
2.856000D+01           2.787230D-01
1.021000D+01           4.485400D-01
3.838000D+00           2.782380D-01
7.466000D-01           1.544000D-02
2.248000D-01          -2.864000D-03
S   9   1.00
9.046000D+03          -1.530000D-04
1.357000D+03          -1.208000D-03
3.093000D+02          -5.992000D-03
8.773000D+01          -2.454400D-02
2.856000D+01          -6.745900D-02
1.021000D+01          -1.580780D-01
3.838000D+00          -1.218310D-01
7.466000D-01           5.490030D-01
2.248000D-01           5.788150D-01
S   1   1.00
2.248000D-01           1.000000D+00
P   4   1.00
1.355000D+01           3.991900D-02
2.917000D+00           2.171690D-01
7.973000D-01           5.103190D-01
2.185000D-01           4.622140D-01
P   1   1.00
2.185000D-01           1.000000D+00
D   1   1.00
8.170000D-01           1.0000000
****
O     0
S   9   1.00
1.172000D+04           7.100000D-04
1.759000D+03           5.470000D-03
4.008000D+02           2.783700D-02
1.137000D+02           1.048000D-01
3.703000D+01           2.830620D-01
1.327000D+01           4.487190D-01
5.025000D+00           2.709520D-01
1.013000D+00           1.545800D-02
3.023000D-01          -2.585000D-03
S   9   1.00
1.172000D+04          -1.600000D-04
1.759000D+03          -1.263000D-03
4.008000D+02          -6.267000D-03
1.137000D+02          -2.571600D-02
3.703000D+01          -7.092400D-02
1.327000D+01          -1.654110D-01
5.025000D+00          -1.169550D-01
1.013000D+00           5.573680D-01
3.023000D-01           5.727590D-01
S   1   1.00
3.023000D-01           1.000000D+00
P   4   1.00
1.770000D+01           4.301800D-02
3.854000D+00           2.289130D-01
1.046000D+00           5.087280D-01
2.753000D-01           4.605310D-01
P   1   1.00
2.753000D-01           1.000000D+00
D   1   1.00
1.185000D+00           1.0000000
****
Fe     0
S   20   1.00
4.316265D+06           8.048803D-06
6.463424D+05           6.258306D-05
1.470897D+05           3.290239D-04
4.166152D+04           1.387355D-03
1.359077D+04           5.023256D-03
4.905750D+03           1.610140D-02
1.912746D+03           4.590034D-02
7.926043D+02           1.136154D-01
3.448065D+02           2.283869D-01
1.558999D+02           3.221159D-01
7.223091D+01           2.383661D-01
3.272506D+01           7.404667D-02
1.566762D+01           9.214197D-02
7.503483D+00           9.339790D-02
3.312223D+00           1.573965D-02
1.558471D+00          -4.186682D-04
6.839140D-01           5.376318D-05
1.467570D-01          -3.816654D-05
7.058300D-02           4.319603D-05
3.144900D-02          -3.401019D-06
S   20   1.00
4.316265D+06          -4.155954D-06
6.463424D+05          -3.231401D-05
1.470897D+05          -1.699525D-04
4.166152D+04          -7.171369D-04
1.359077D+04          -2.603625D-03
4.905750D+03          -8.399109D-03
1.912746D+03          -2.434109D-02
7.926043D+02          -6.251948D-02
3.448065D+02          -1.365929D-01
1.558999D+02          -2.312707D-01
7.223091D+01          -2.383734D-01
3.272506D+01           3.123837D-02
1.566762D+01           5.086818D-01
7.503483D+00           4.987695D-01
3.312223D+00           9.033552D-02
1.558471D+00          -6.005337D-03
6.839140D-01           2.312454D-04
1.467570D-01          -5.643680D-04
7.058300D-02           4.992260D-04
3.144900D-02          -1.015293D-04
S   20   1.00
4.316265D+06           9.532178D-07
6.463424D+05           7.414605D-06
1.470897D+05           3.898393D-05
4.166152D+04           1.647152D-04
1.359077D+04           5.985980D-04
4.905750D+03           1.942390D-03
1.912746D+03           5.687237D-03
7.926043D+02           1.501329D-02
3.448065D+02           3.452455D-02
1.558999D+02           6.495820D-02
7.223091D+01           7.716194D-02
3.272506D+01          -1.873411D-02
1.566762D+01          -3.009185D-01
7.503483D+00          -4.554661D-01
3.312223D+00           1.286463D-01
1.558471D+00           7.183316D-01
6.839140D-01           4.051743D-01
1.467570D-01           2.168227D-02
7.058300D-02          -8.343566D-03
3.144900D-02           3.658979D-03
S   20   1.00
4.316265D+06          -2.063008D-07
6.463424D+05          -1.604169D-06
1.470897D+05          -8.438437D-06
4.166152D+04          -3.563151D-05
1.359077D+04          -1.295998D-04
4.905750D+03          -4.201534D-04
1.912746D+03          -1.231954D-03
7.926043D+02          -3.248922D-03
3.448065D+02          -7.493717D-03
1.558999D+02          -1.410102D-02
7.223091D+01          -1.691600D-02
3.272506D+01           4.218996D-03
1.566762D+01           6.833810D-02
7.503483D+00           1.098201D-01
3.312223D+00          -4.009005D-02
1.558471D+00          -2.174739D-01
6.839140D-01          -2.465135D-01
1.467570D-01           2.731435D-01
7.058300D-02           5.748321D-01
3.144900D-02           3.012713D-01
S   20   1.00
4.316265D+06          -4.009367D-07
6.463424D+05          -3.189255D-06
1.470897D+05          -1.623079D-05
4.166152D+04          -7.157920D-05
1.359077D+04          -2.463958D-04
4.905750D+03          -8.544907D-04
1.912746D+03          -2.307593D-03
7.926043D+02          -6.728292D-03
3.448065D+02          -1.366165D-02
1.558999D+02          -3.062240D-02
7.223091D+01          -2.631137D-02
3.272506D+01          -9.760183D-03
1.566762D+01           1.801906D-01
7.503483D+00           1.529634D-01
3.312223D+00           5.505413D-02
1.558471D+00          -9.551364D-01
6.839140D-01           2.586813D-01
1.467570D-01           1.834049D+00
7.058300D-02          -9.333240D-01
3.144900D-02          -6.981605D-01
S   1   1.00
3.144900D-02           1.000000D+00
P   16   1.00
1.774569D+04           4.100000D-05
4.200721D+03           3.690000D-04
1.364429D+03           2.129000D-03
5.220806D+02           9.369000D-03
2.214595D+02           3.309700D-02
1.009096D+02           9.443100D-02
4.840115D+01           2.080770D-01
2.398536D+01           3.323330D-01
1.218250D+01           3.329870D-01
6.242298D+00           1.568430D-01
3.110944D+00           2.154900D-02
1.509958D+00          -2.095000D-03
7.108450D-01          -1.739000D-03
2.731900D-01          -3.000000D-04
1.042330D-01           2.900000D-05
3.829100D-02          -1.100000D-05
P   16   1.00
1.774569D+04          -1.500000D-05
4.200721D+03          -1.300000D-04
1.364429D+03          -7.510000D-04
5.220806D+02          -3.329000D-03
2.214595D+02          -1.191200D-02
1.009096D+02          -3.493300D-02
4.840115D+01          -7.998900D-02
2.398536D+01          -1.346360D-01
1.218250D+01          -1.385980D-01
6.242298D+00           3.027800D-02
3.110944D+00           3.332160D-01
1.509958D+00           4.561530D-01
7.108450D-01           2.850510D-01
2.731900D-01           4.614400D-02
1.042330D-01          -3.249000D-03
3.829100D-02           1.357000D-03
P   16   1.00
1.774569D+04           5.000000D-06
4.200721D+03           4.200000D-05
1.364429D+03           2.410000D-04
5.220806D+02           1.085000D-03
2.214595D+02           3.831000D-03
1.009096D+02           1.142300D-02
4.840115D+01           2.579200D-02
2.398536D+01           4.481800D-02
1.218250D+01           4.459800D-02
6.242298D+00          -1.117700D-02
3.110944D+00          -1.381340D-01
1.509958D+00          -1.882850D-01
7.108450D-01          -1.073990D-01
2.731900D-01           4.448630D-01
1.042330D-01           6.402390D-01
3.829100D-02           6.445700D-02
P   16   1.00
1.774569D+04           3.000000D-06
4.200721D+03           2.900000D-05
1.364429D+03           1.650000D-04
5.220806D+02           7.340000D-04
2.214595D+02           2.626000D-03
1.009096D+02           7.725000D-03
4.840115D+01           1.773300D-02
2.398536D+01           3.005500D-02
1.218250D+01           3.109400D-02
6.242298D+00          -1.004800D-02
3.110944D+00          -8.830600D-02
1.509958D+00          -1.298240D-01
7.108450D-01          -7.693700D-02
2.731900D-01           2.126610D-01
1.042330D-01           5.730610D-01
3.829100D-02           3.696510D-01
P   1   1.00
3.829100D-02           1.000000D+00
D   8   1.00
1.133440D+02           3.530000D-03
3.364140D+01           2.578400D-02
1.233100D+01           9.911900D-02
4.994780D+00           2.390730D-01
2.072800D+00           3.571990D-01
8.307530D-01           3.621880D-01
3.091780D-01           2.364610D-01
1.001300D-01           6.011800D-02
D   8   1.00
1.133440D+02          -3.890000D-03
3.364140D+01          -2.844200D-02
1.233100D+01          -1.124290D-01
4.994780D+00          -2.742570D-01
2.072800D+00          -3.155460D-01
8.307530D-01           5.710900D-02
3.091780D-01           5.636040D-01
1.001300D-01           3.846370D-01
D   1   1.00
1.001300D-01           1.000000D+00
F   2   1.00
3.224300D+00           4.222490D-01
7.758000D-01           7.714680D-01
****
$end


--------------------------------------------------------------
 ----------------------------------------------------------------
             Standard Nuclear Orientation (Angstroms)
    I     Atom           X                Y                Z
 ----------------------------------------------------------------
    1      C      -6.1522885000    -3.6437501000     1.3793803000
    2      C      -6.4024747000    -2.1534825000     1.6500844000
    3      N      -5.3016389000    -1.6401142000     2.3190397000
    4      O      -7.4285867000    -1.5033133000     1.3739727000
    5      C      -4.2043917000    -2.7132709000     2.4460125000
    6      C      -5.5605724000    -0.3452252000     3.0407475000
    7      O      -3.3170430000    -2.7228999000     1.3580405000
    8      C      -3.4336756000    -2.5717523000     3.7905186000
    9      H      -7.0861332000    -4.2013057000     1.4730304000
   10      H      -5.7489544000    -3.7720723000     0.3686900000
   11      C      -4.3615904000     0.5382580000     3.4417296000
   12      N      -4.2015456000     1.6785725000     2.7196574000
   13      C      -6.3411545000    -0.6702539000     4.3375030000
   14      C      -3.0923775000     2.6274003000     2.9983467000
   15      C      -1.7572082000     1.9244777000     3.3675248000
   16      O      -0.5427402000     2.3511460000     2.5774665000
   17      C      -0.4300540000     1.8101799000     1.3264435000
   18      C       0.9263432000     1.1918456000     1.0390956000
   19      O      -1.3843325000     1.7684751000     0.5237373000
   20      C       0.5589325000    -0.3242722000     1.1337192000
   21      C      -0.0152587000    -0.7329969000    -0.2690024000
   22      O      -2.9282657000    -0.2505748000     1.2728351000
   23      C       1.7174225000    -1.2835489000     1.4187503000
   24      C       1.2308838000    -2.7242050000     1.7833377000
   25      O       2.0913154000    -3.5387001000     2.1761383000
   26      O      -0.4174266000    -0.4257906000     2.1852406000
   27      H      -3.3882204000     3.3004490000     3.8100006000
   28      H      -2.9478247000     3.2174983000     2.0940473000
   29      H      -1.8133760000     0.8536414000     3.2234916000
   30      H      -1.4637074000     2.1569776000     4.3890701000
   31      H       1.6436112000     1.4776176000     1.8083953000
   32      H       2.3141322000    -0.9263173000     2.2661636000
   33      H       2.3716696000    -1.3594678000     0.5417311000
   34      H      -6.2072122000     0.2130711000     2.3601249000
   35      H      -5.7284194000    -1.3536309000     4.9266858000
   36      H      -7.2882295000    -1.1485589000     4.0731097000
   37      H      -6.5516076000     0.2401851000     4.9081839000
   38      O       0.6260025000    -0.4253034000    -1.2987085000
   39      O      -1.1252849000    -1.4358391000    -0.2341363000
   40      H       1.2838727000     1.4087973000     0.0322476000
   41      O      -3.6810109000     0.3025291000     4.4642959000
   42      H      -4.6732578000     1.7648695000     1.8247300000
   43      O      -3.9784960000    -2.8502207000     4.8799254000
   44      O      -2.1753571000    -2.2170942000     3.6256299000
   45      C      -5.0864651000    -3.9832503000     2.4352412000
   46      H      -4.4821478000    -4.8583276000     2.1920853000
   47      H      -5.5375592000    -4.0917089000     3.4245069000
   48      Fe     -1.6281803000    -1.8320149000     1.7229917000
   49      O      -0.0518903000    -3.0311287000     1.6434800000
   50      H      -3.6269687000    -0.6483487000     0.6978333000
   51      H      -2.4935371000     0.5585893000     0.8644638000
 ----------------------------------------------------------------
 Nuclear Repulsion Energy =        4570.95060644 hartrees
 There are      133 alpha and      128 beta electrons
 Requested basis set is non-standard
 There are 258 shells and 572 basis functions

 Total QAlloc Memory Limit  30000 MB
 Mega-Array Size       188 MB
 MEM_STATIC part       192 MB

 -----------------------------------------------------------------------
                STARTING GEOMETRY OPTIMIZER USING LIBOPT3
                by Peter F. McLaughlin, Yu Zhang, Evgeny Epifanovsky
 -----------------------------------------------------------------------

              Initial Energy and Gradient Calculation
   -- Checking Topology for Ill-Behaving Coordinates --

 -------------------------------------------
   Coordinate       |  Removed | Additions 
 -------------------------------------------
	Bonds                     0          0
	Angles                    1          0
	Torsions                  2          2
	Co-Linear Type5s          0          2
	Co-Linear Type6s          0          2
 -------------------------------------------

 ** Ill-Behaving Topology Definitions (No action needed.) **

  Ill-Defined Angles Removed: 
  39  48  44

  Ill-Defined Torsions Removed: 
   8  44  48  39,  21  39  48  44

     Done Checking Topology
 ----------------------------------------------------------------
             Standard Nuclear Orientation (Angstroms)
    I     Atom           X                Y                Z
 ----------------------------------------------------------------
    1      C      -6.1522885000    -3.6437501000     1.3793803000
    2      C      -6.4024747000    -2.1534825000     1.6500844000
    3      N      -5.3016389000    -1.6401142000     2.3190397000
    4      O      -7.4285867000    -1.5033133000     1.3739727000
    5      C      -4.2043917000    -2.7132709000     2.4460125000
    6      C      -5.5605724000    -0.3452252000     3.0407475000
    7      O      -3.3170430000    -2.7228999000     1.3580405000
    8      C      -3.4336756000    -2.5717523000     3.7905186000
    9      H      -7.0861332000    -4.2013057000     1.4730304000
   10      H      -5.7489544000    -3.7720723000     0.3686900000
   11      C      -4.3615904000     0.5382580000     3.4417296000
   12      N      -4.2015456000     1.6785725000     2.7196574000
   13      C      -6.3411545000    -0.6702539000     4.3375030000
   14      C      -3.0923775000     2.6274003000     2.9983467000
   15      C      -1.7572082000     1.9244777000     3.3675248000
   16      O      -0.5427402000     2.3511460000     2.5774665000
   17      C      -0.4300540000     1.8101799000     1.3264435000
   18      C       0.9263432000     1.1918456000     1.0390956000
   19      O      -1.3843325000     1.7684751000     0.5237373000
   20      C       0.5589325000    -0.3242722000     1.1337192000
   21      C      -0.0152587000    -0.7329969000    -0.2690024000
   22      O      -2.9282657000    -0.2505748000     1.2728351000
   23      C       1.7174225000    -1.2835489000     1.4187503000
   24      C       1.2308838000    -2.7242050000     1.7833377000
   25      O       2.0913154000    -3.5387001000     2.1761383000
   26      O      -0.4174266000    -0.4257906000     2.1852406000
   27      H      -3.3882204000     3.3004490000     3.8100006000
   28      H      -2.9478247000     3.2174983000     2.0940473000
   29      H      -1.8133760000     0.8536414000     3.2234916000
   30      H      -1.4637074000     2.1569776000     4.3890701000
   31      H       1.6436112000     1.4776176000     1.8083953000
   32      H       2.3141322000    -0.9263173000     2.2661636000
   33      H       2.3716696000    -1.3594678000     0.5417311000
   34      H      -6.2072122000     0.2130711000     2.3601249000
   35      H      -5.7284194000    -1.3536309000     4.9266858000
   36      H      -7.2882295000    -1.1485589000     4.0731097000
   37      H      -6.5516076000     0.2401851000     4.9081839000
   38      O       0.6260025000    -0.4253034000    -1.2987085000
   39      O      -1.1252849000    -1.4358391000    -0.2341363000
   40      H       1.2838727000     1.4087973000     0.0322476000
   41      O      -3.6810109000     0.3025291000     4.4642959000
   42      H      -4.6732578000     1.7648695000     1.8247300000
   43      O      -3.9784960000    -2.8502207000     4.8799254000
   44      O      -2.1753571000    -2.2170942000     3.6256299000
   45      C      -5.0864651000    -3.9832503000     2.4352412000
   46      H      -4.4821478000    -4.8583276000     2.1920853000
   47      H      -5.5375592000    -4.0917089000     3.4245069000
   48      Fe     -1.6281803000    -1.8320149000     1.7229917000
   49      O      -0.0518903000    -3.0311287000     1.6434800000
   50      H      -3.6269687000    -0.6483487000     0.6978333000
   51      H      -2.4935371000     0.5585893000     0.8644638000
 ----------------------------------------------------------------
 Nuclear Repulsion Energy =        4570.95060644 hartrees
 There are      133 alpha and      128 beta electrons
 Using C-PCM dielectric factor f(eps) = (eps-1)/eps = 0.987243
 Static dielectric constant eps = 78.39
 No default van der Waals radius is available for Z = 26
	Found R = 2.4400 A in the $van_der_waals section
 Discretize the solute cavity surface with Lebedev spheres
	Using 110 Lebedev grid points for each H atom
	Using 194 Lebedev grid points for other atoms
	Atomic van der Waals radii (Bondi set) will be scaled by 1.20
 Using smooth SwiG surface discretization
 Remove points where switching function is < 1.0e-08
 Keep 2877 surface tesserae and discard 5421 interior tesserae
 Molecular Surface Area = 387.887 Angst**2

 Requested basis set is non-standard
 There are 258 shells and 572 basis functions
 A cutoff of  1.0D-12 yielded  29585 shell pairs
 There are    136409 function pairs (    152855 Cartesian)
 Smallest overlap matrix eigenvalue = 2.29E-04

 Scale SEOQF with 1.000000e-02/1.000000e-01/1.000000e-01

 Standard Electronic Orientation quadrupole field applied
 Nucleus-field energy     =    -0.0000000782 hartrees
 ================ Generating on-the-fly SAD Guess ================
 Attempting to make child job directory: /scratch/cooksy_group/qchem642544//Frg1/
 Attempting to make child job directory: /scratch/cooksy_group/qchem642544//Frg2/
 Attempting to make child job directory: /scratch/cooksy_group/qchem642544//Frg3/
 Attempting to make child job directory: /scratch/cooksy_group/qchem642544//Frg4/
 Attempting to make child job directory: /scratch/cooksy_group/qchem642544//Frg5/
 Creating input file /scratch/cooksy_group/qchem642544/Frg1.input
 using default PutDataFrgm: nothing
 calling putenv with: QCSCRATCH=/scratch/cooksy_group/qchem642544/ 
 Spawning Job For Fragment 0
 Done Job For Fragment 0
 calling putenv with: QCSCRATCH=/scratch/cooksy_group 
 calling putenv with: QCTHREADS=16 
 Creating input file /scratch/cooksy_group/qchem642544/Frg2.input
 using default PutDataFrgm: nothing
 calling putenv with: QCSCRATCH=/scratch/cooksy_group/qchem642544/ 
 Spawning Job For Fragment 1
 Done Job For Fragment 1
 calling putenv with: QCSCRATCH=/scratch/cooksy_group 
 calling putenv with: QCTHREADS=16 
 Creating input file /scratch/cooksy_group/qchem642544/Frg3.input
 using default PutDataFrgm: nothing
 calling putenv with: QCSCRATCH=/scratch/cooksy_group/qchem642544/ 
 Spawning Job For Fragment 2
 Done Job For Fragment 2
 calling putenv with: QCSCRATCH=/scratch/cooksy_group 
 calling putenv with: QCTHREADS=16 
 Creating input file /scratch/cooksy_group/qchem642544/Frg4.input
 using default PutDataFrgm: nothing
 calling putenv with: QCSCRATCH=/scratch/cooksy_group/qchem642544/ 
 Spawning Job For Fragment 3
 Done Job For Fragment 3
 calling putenv with: QCSCRATCH=/scratch/cooksy_group 
 calling putenv with: QCTHREADS=16 
 Creating input file /scratch/cooksy_group/qchem642544/Frg5.input
 using default PutDataFrgm: nothing
 calling putenv with: QCSCRATCH=/scratch/cooksy_group/qchem642544/ 
 Spawning Job For Fragment 4
 Done Job For Fragment 4
 calling putenv with: QCSCRATCH=/scratch/cooksy_group 
 calling putenv with: QCTHREADS=16 
 Time for running child jobs:  CPU 0.02 s  wall 80.57 s
 ============= Method Specific SAD Guess Constructed =============
 Guess from on-the-fly superposition of atomic densities
 Warning: Energy on first SCF cycle will be non-variational

 -----------------------------------------------------------------------
  General SCF calculation program by
  Eric Jon Sundstrom, Paul Horn, Yuezhi Mao, Dmitri Zuev, Alec White,
  David Stuck, Shaama M.S., Shane Yost, Joonho Lee, David Small,
  Daniel Levine, Susi Lehtola, Hugh Burton, Evgeny Epifanovsky,
  Bang C. Huynh
 -----------------------------------------------------------------------
 Exchange:     0.2000 Hartree-Fock + 0.0800 Slater + 0.7200 B88
 Correlation:  0.1900 VWN1RPA + 0.8100 LYP
 Using SG-1 standard quadrature grid
 using 16 threads for integral computing
 -------------------------------------------------------
 OpenMP Integral computing Module                
 Release: version 1.0, May 2013, Q-Chem Inc. Pittsburgh 
 -------------------------------------------------------
 C-PCM solvent model [f = (eps-1)/eps], solve by matrix inversion
 A unrestricted SCF calculation will be
 performed using DIIS
 SCF converges when DIIS error is below 1.0e-08
 ---------------------------------------
  Cycle       Energy         DIIS error
 ---------------------------------------
    1   -2983.3532248356      1.78e-02  
    2   -2972.0078682986      2.57e-03  
    3   -2969.1184297048      6.03e-03  
    4   -2971.4516623169      3.29e-03  
    5   -2972.8805100913      5.88e-04  
    6   -2972.9124643851      3.89e-04  
    7   -2972.9315978771      1.48e-04  
    8   -2972.9343173160      6.24e-05  
    9   -2972.9347531570      3.32e-05  
   10   -2972.9348786684      1.59e-05  
   11   -2972.9349112923      7.39e-06  
   12   -2972.9349190289      2.82e-06  
   13   -2972.9349199498      1.40e-06  
   14   -2972.9349202120      7.12e-07  
   15   -2972.9349202944      3.19e-07  
   16   -2972.9349203104      1.26e-07  
   17   -2972.9349203132      6.15e-08  
   18   -2972.9349203139      3.15e-08  
   19   -2972.9349203141      1.37e-08  
   20   -2972.9349203143      6.45e-09  Convergence criterion met
 ---------------------------------------
 SCF time:   CPU 27181.38s  wall 1944.00s 
<S^2> =          8.756303786

************** Final PCM Free Energy Summary **************
 G_electrostatic  =      -0.28321863 hartree =    -177.72237618 kcal/mol
 G_cavitation     =       0.00000000 hartree =       0.00000000 kcal/mol
 G_dispersion     =       0.00000000 hartree =       0.00000000 kcal/mol
 G_repulsion      =       0.00000000 hartree =       0.00000000 kcal/mol
 --------------------------------------------------
 Non-electrostatic Free Energy =       0.00000000 hartree =       0.00000000 kcal/mol
 Total                         =      -0.28321863 hartree =    -177.72237618 kcal/mol
 --------------------------------------------------
 SCF Energy (H0 + V/2)                       =   -2972.93492031 
 Solute Internal Energy (H0)                 =   -2972.65170168 
 Total Free Energy (H0 + V/2 + non-elec)     =   -2972.93492031 hartree
                                             = -1865544.82827010 kcal/mol
***********************************************************

 SCF   energy = -2972.93492031
 Total energy = -2972.93492031
 
 --------------------------------------------------------------
 
                    Orbital Energies (a.u.)
 --------------------------------------------------------------
 
 Alpha MOs
 -- Occupied --
 -256.12428   -30.12409   -25.97806   -25.97609   -25.97254   -19.16872
  -19.13895   -19.13386   -19.10869   -19.10656   -19.10600   -19.10173
  -19.10017   -19.09559   -19.08869   -19.08780   -19.08488   -19.08108
  -14.34749   -14.34668   -10.32471   -10.28462   -10.28297   -10.27974
  -10.27823   -10.27134   -10.26024   -10.23037   -10.23010   -10.22678
  -10.22056   -10.18577   -10.18408   -10.17904   -10.17580   -10.16692
   -3.60801    -2.38636    -2.38208    -2.37665    -1.08082    -1.03497
   -1.02957    -1.02238    -1.02209    -1.01944    -1.00711    -0.99653
   -0.96537    -0.95392    -0.94658    -0.93907    -0.93789    -0.90871
   -0.89998    -0.79470    -0.77235    -0.75085    -0.73141    -0.71711
   -0.68611    -0.66129    -0.62540    -0.60782    -0.59876    -0.57256
   -0.54897    -0.54721    -0.53642    -0.53465    -0.52799    -0.50457
   -0.49614    -0.49329    -0.48811    -0.47958    -0.47648    -0.47017
   -0.46402    -0.46022    -0.45628    -0.44377    -0.44205    -0.43979
   -0.43226    -0.43045    -0.42949    -0.42069    -0.42035    -0.41596
   -0.41230    -0.40972    -0.40301    -0.40295    -0.39902    -0.39542
   -0.38849    -0.38359    -0.38256    -0.37683    -0.37556    -0.37109
   -0.36737    -0.36370    -0.36137    -0.35691    -0.35437    -0.35222
   -0.34533    -0.34273    -0.33536    -0.33054    -0.32701    -0.31584
   -0.29684    -0.29040    -0.28316    -0.27589    -0.27336    -0.26329
   -0.26160    -0.25888    -0.25392    -0.25034    -0.24830    -0.24708
   -0.23842    -0.23680    -0.23181    -0.23038    -0.22315    -0.21598
   -0.19631
 -- Virtual --
   -0.01506     0.01216     0.01962     0.03237     0.03271     0.04277
    0.05315     0.05654     0.06882     0.07563     0.08229     0.09578
    0.10488     0.10816     0.11741     0.12313     0.12686     0.13292
    0.13800     0.14119     0.14480     0.14996     0.16058     0.16348
    0.16524     0.17230     0.17500     0.17979     0.18663     0.19060
    0.19828     0.20555     0.20892     0.21443     0.22036     0.22488
    0.23071     0.23297     0.23896     0.24387     0.25814     0.26197
    0.26944     0.27386     0.27706     0.27985     0.29328     0.30913
    0.31750     0.31985     0.32786     0.33166     0.33970     0.34235
    0.35219     0.36697     0.37454     0.37650     0.38088     0.40086
    0.40619     0.41192     0.42586     0.44057     0.44492     0.44960
    0.45450     0.45723     0.46069     0.46634     0.47646     0.48719
    0.49141     0.50063     0.50700     0.50987     0.51539     0.51779
    0.52262     0.52833     0.53307     0.53659     0.54586     0.55157
    0.55441     0.55831     0.56394     0.56727     0.57055     0.57660
    0.58200     0.59204     0.59888     0.59990     0.60900     0.61021
    0.61902     0.62159     0.62551     0.62748     0.63194     0.63789
    0.64543     0.64724     0.64762     0.65124     0.65466     0.65897
    0.66259     0.66452     0.67255     0.67607     0.68675     0.68902
    0.69197     0.69510     0.70025     0.70685     0.71020     0.71284
    0.72469     0.72830     0.73244     0.73515     0.74353     0.75491
    0.76627     0.76742     0.77763     0.78312     0.79695     0.79824
    0.80567     0.81911     0.82367     0.82837     0.84248     0.85357
    0.86094     0.86873     0.87579     0.88356     0.89709     0.90796
    0.90944     0.92181     0.93037     0.94373     0.95359     0.95772
    0.97933     0.99184     0.99551     1.00398     1.01615     1.02444
    1.03299     1.05001     1.05409     1.06029     1.06643     1.07139
    1.08018     1.09000     1.09462     1.10541     1.11628     1.11734
    1.12559     1.13180     1.13995     1.14474     1.15561     1.15693
    1.16546     1.17148     1.17660     1.18289     1.18687     1.19881
    1.20185     1.20958     1.21870     1.22759     1.23007     1.24134
    1.24679     1.24845     1.26087     1.26683     1.27690     1.28067
    1.28911     1.29134     1.30083     1.31341     1.32085     1.32270
    1.33562     1.33938     1.34342     1.35515     1.36009     1.36633
    1.36693     1.38006     1.38796     1.39226     1.39976     1.40552
    1.40895     1.42603     1.43627     1.44286     1.44738     1.45005
    1.46119     1.46974     1.47549     1.48366     1.49363     1.50092
    1.51216     1.52202     1.53085     1.53703     1.54951     1.56168
    1.56376     1.56728     1.57276     1.57726     1.58371     1.59271
    1.59891     1.60597     1.60923     1.62242     1.63146     1.63642
    1.64200     1.65010     1.65369     1.65492     1.65907     1.66902
    1.67243     1.67491     1.68508     1.69180     1.69685     1.70022
    1.71036     1.71776     1.72122     1.72703     1.72867     1.73413
    1.73561     1.74422     1.74753     1.75527     1.76169     1.76795
    1.77288     1.77736     1.77981     1.79131     1.79349     1.80606
    1.80801     1.81433     1.82167     1.82335     1.83470     1.84556
    1.85350     1.86072     1.86586     1.87408     1.87687     1.88284
    1.90055     1.90332     1.90859     1.91401     1.93193     1.93624
    1.94168     1.94947     1.95810     1.96553     1.97770     1.98329
    1.98615     2.00331     2.00853     2.00959     2.02088     2.02950
    2.03449     2.04052     2.04655     2.04882     2.06671     2.07342
    2.08733     2.09552     2.10036     2.10192     2.11235     2.12728
    2.13989     2.14705     2.14935     2.15487     2.16567     2.17566
    2.18148     2.19100     2.20169     2.21157     2.22435     2.23161
    2.23450     2.24892     2.26561     2.28407     2.28574     2.30200
    2.30867     2.31481     2.32969     2.35834     2.36721     2.38098
    2.39549     2.39721     2.40932     2.41907     2.42235     2.43573
    2.46193     2.46940     2.47770     2.48000     2.49054     2.49190
    2.49581     2.50412     2.51138     2.52758     2.53284     2.54179
    2.57462     2.58287     2.59448     2.60840     2.61577     2.62161
    2.64809     2.65045     2.65647     2.66743     2.67353     2.67813
    2.68027     2.68874     2.70327     2.71721     2.72022     2.72527
    2.72807     2.73453     2.74340     2.74821     2.75800     2.76934
    2.78437     2.79430     2.80761     2.82446     2.83942     2.85540
    2.85965     2.87129     2.88455     2.89444     2.91276     2.94982
    2.95277     2.95760     2.96389     2.97654     2.98456     2.99107
    3.01033     3.02810     3.04331     3.05400     3.05637     3.06577
    3.07972     3.09326     3.09809     3.10920     3.11273     3.13538
    3.16179     3.17443     3.18453     3.19149     3.20383     3.21022
    3.23000     3.30231     3.33514     3.34250     3.35457     3.36651
    3.38142     3.41145     3.43228     3.43789     3.44209     3.45404
    3.46710     3.48363     3.48636     3.50555     3.50713     3.52008
    3.52720     3.54784     3.59413     3.60610     3.64376     3.67961
    3.86751
 
 Beta MOs
 -- Occupied --
 -256.12246   -30.03033   -25.89905   -25.89766   -25.89568   -19.16868
  -19.13651   -19.13384   -19.10655   -19.10536   -19.10229   -19.10173
  -19.09701   -19.09509   -19.08815   -19.08744   -19.08010   -19.07536
  -14.34747   -14.34657   -10.32471   -10.28455   -10.28297   -10.27971
  -10.27823   -10.27130   -10.26018   -10.23038   -10.23003   -10.22678
  -10.22056   -10.18568   -10.18407   -10.17893   -10.17570   -10.16691
   -3.39003    -2.15479    -2.15225    -2.14967    -1.08068    -1.03208
   -1.02608    -1.02154    -1.01935    -1.01909    -1.00505    -0.99381
   -0.95936    -0.94694    -0.94143    -0.93358    -0.92977    -0.90849
   -0.89668    -0.79413    -0.77033    -0.74992    -0.73112    -0.71675
   -0.68442    -0.66115    -0.62513    -0.60639    -0.59780    -0.57232
   -0.54793    -0.54491    -0.53434    -0.53280    -0.52169    -0.49517
   -0.49032    -0.48528    -0.47802    -0.47779    -0.47368    -0.46554
   -0.46030    -0.45472    -0.44918    -0.43893    -0.43450    -0.43222
   -0.42877    -0.42468    -0.41589    -0.41399    -0.41299    -0.40915
   -0.40380    -0.39836    -0.39632    -0.39308    -0.38537    -0.37773
   -0.37423    -0.37347    -0.36762    -0.36505    -0.36240    -0.36032
   -0.35383    -0.35137    -0.34819    -0.34327    -0.33411    -0.32917
   -0.32054    -0.30166    -0.29556    -0.28649    -0.28082    -0.27958
   -0.27514    -0.27177    -0.26408    -0.25475    -0.25063    -0.24892
   -0.24726    -0.24304    -0.24241    -0.23624    -0.23213    -0.22968
   -0.22565    -0.21594
 -- Virtual --
   -0.06720    -0.06106    -0.05651    -0.02163    -0.01393     0.00033
    0.01331     0.01989     0.03446     0.03827     0.04433     0.05458
    0.05796     0.06955     0.07631     0.08273     0.09611     0.10567
    0.10849     0.11799     0.12361     0.12736     0.13333     0.13835
    0.14186     0.14535     0.15036     0.16222     0.16464     0.16564
    0.17389     0.17707     0.18088     0.18741     0.19090     0.19877
    0.20786     0.20980     0.21527     0.22441     0.22656     0.23318
    0.23842     0.24015     0.24553     0.26146     0.26272     0.27260
    0.27561     0.27880     0.28717     0.29462     0.31268     0.32246
    0.32327     0.33182     0.33566     0.34128     0.34477     0.36001
    0.37433     0.37966     0.38076     0.38841     0.40151     0.41159
    0.42044     0.42816     0.44284     0.44637     0.45114     0.45727
    0.45946     0.46378     0.46950     0.47922     0.48849     0.49650
    0.50253     0.50825     0.51252     0.51648     0.52012     0.52493
    0.52958     0.53405     0.53745     0.54735     0.55307     0.55637
    0.55889     0.56536     0.56790     0.57126     0.57741     0.58380
    0.59335     0.59964     0.60093     0.60966     0.61158     0.62008
    0.62271     0.62681     0.62888     0.63322     0.63900     0.64627
    0.64779     0.64898     0.65256     0.65614     0.65944     0.66387
    0.66567     0.67431     0.67705     0.68776     0.69182     0.69279
    0.69591     0.70121     0.70886     0.71164     0.71461     0.72759
    0.72882     0.73419     0.73816     0.74454     0.75593     0.76773
    0.77174     0.77838     0.78586     0.79814     0.80020     0.80852
    0.82713     0.83028     0.84157     0.84910     0.85639     0.87082
    0.87606     0.88407     0.88588     0.89792     0.90972     0.91212
    0.92534     0.93226     0.94795     0.95874     0.96139     0.98218
    0.99527     0.99690     1.00841     1.01749     1.02851     1.03618
    1.05129     1.05654     1.06286     1.07147     1.07616     1.08125
    1.09241     1.09740     1.10867     1.11790     1.12031     1.12916
    1.13369     1.14363     1.14746     1.15746     1.15912     1.16814
    1.17312     1.17995     1.18527     1.19002     1.20226     1.20388
    1.21309     1.22138     1.23043     1.23266     1.24378     1.24969
    1.25520     1.26376     1.26948     1.28519     1.28643     1.29083
    1.29615     1.30957     1.31764     1.32430     1.33136     1.33786
    1.34559     1.34928     1.35911     1.36632     1.37038     1.37403
    1.38391     1.39294     1.40537     1.40719     1.41115     1.41646
    1.43184     1.44047     1.44639     1.45075     1.45703     1.46663
    1.47488     1.47911     1.48995     1.49947     1.51724     1.52212
    1.53084     1.53718     1.54230     1.55318     1.56537     1.56986
    1.57376     1.57681     1.57856     1.58564     1.59893     1.60314
    1.61074     1.61524     1.62616     1.63365     1.63814     1.64411
    1.65236     1.65621     1.65833     1.66023     1.67435     1.67566
    1.67851     1.68802     1.69344     1.69858     1.70583     1.71452
    1.72210     1.72480     1.73159     1.73333     1.73578     1.74200
    1.74535     1.75258     1.75883     1.76500     1.77095     1.77453
    1.78165     1.78602     1.79239     1.80056     1.80948     1.81425
    1.82011     1.82703     1.82791     1.83682     1.85234     1.85726
    1.86490     1.87446     1.87902     1.88436     1.88962     1.90434
    1.90975     1.91119     1.92247     1.93737     1.94212     1.94863
    1.95284     1.96020     1.96767     1.97956     1.98743     1.98798
    2.00466     2.01048     2.01267     2.02158     2.03166     2.03646
    2.04157     2.05008     2.05493     2.06989     2.07490     2.09203
    2.09757     2.10405     2.10634     2.11538     2.12975     2.14393
    2.14889     2.15497     2.15702     2.16892     2.17694     2.18528
    2.19401     2.20779     2.21713     2.22770     2.23440     2.23612
    2.25102     2.26942     2.28758     2.29073     2.30869     2.31127
    2.32344     2.33201     2.36213     2.37694     2.38363     2.39914
    2.39973     2.41202     2.42323     2.42568     2.44161     2.46580
    2.47025     2.48009     2.48122     2.49273     2.49395     2.49778
    2.50877     2.51331     2.52964     2.53630     2.54550     2.57872
    2.58569     2.59934     2.61423     2.62403     2.62916     2.65312
    2.65455     2.66229     2.66989     2.67749     2.68132     2.68607
    2.69170     2.70830     2.72095     2.72444     2.72822     2.73272
    2.73635     2.74812     2.75342     2.77041     2.78179     2.79230
    2.79985     2.82090     2.83573     2.84532     2.85842     2.87184
    2.89150     2.89380     2.90730     2.92322     2.95835     2.96450
    2.96975     2.97932     2.98368     2.99826     3.00587     3.02867
    3.04776     3.05907     3.07655     3.08004     3.09727     3.09989
    3.11041     3.11609     3.13468     3.15553     3.15923     3.17717
    3.19198     3.19688     3.19974     3.21378     3.23245     3.30612
    3.33529     3.34259     3.34682     3.36211     3.37846     3.40339
    3.42295     3.43361     3.44057     3.45408     3.46869     3.47168
    3.48551     3.49992     3.51006     3.51963     3.53231     3.59156
    3.59819     3.60993     3.62729     3.66392     3.77101     3.87353
 --------------------------------------------------------------
 
          Ground-State Mulliken Net Atomic Charges

     Atom                 Charge (a.u.)    Spin (a.u.)
  --------------------------------------------------------
      1 C                     0.018606       0.000260
      2 C                     0.163165      -0.000161
      3 N                    -0.252698       0.003660
      4 O                    -0.361418       0.000341
      5 C                     0.075132       0.006767
      6 C                     0.050064       0.000184
      7 O                    -0.503361       0.149407
      8 C                     0.271101       0.004107
      9 H                     0.021355      -0.000022
     10 H                     0.042622       0.000593
     11 C                     0.196466      -0.000058
     12 N                    -0.136122       0.000709
     13 C                     0.024802       0.000267
     14 C                     0.099495       0.000059
     15 C                     0.106059      -0.000660
     16 O                    -0.307323       0.001232
     17 C                     0.215093       0.000718
     18 C                     0.183859       0.003420
     19 O                    -0.343190       0.000593
     20 C                    -0.119870       0.006290
     21 C                     0.251339       0.005104
     22 O                    -0.254555       0.061857
     23 C                     0.110027       0.003590
     24 C                     0.164638       0.005332
     25 O                    -0.378966       0.018387
     26 O                    -0.533944       0.182087
     27 H                     0.036285       0.000003
     28 H                     0.035380      -0.000003
     29 H                     0.121870       0.001308
     30 H                     0.028527      -0.000009
     31 H                     0.007042       0.000011
     32 H                     0.023558      -0.000231
     33 H                     0.022491       0.001893
     34 H                     0.005327       0.000077
     35 H                     0.022226       0.000106
     36 H                     0.010207      -0.000001
     37 H                     0.013171       0.000027
     38 O                    -0.387684       0.012961
     39 O                    -0.394373       0.089267
     40 H                     0.012730       0.002025
     41 O                    -0.352151       0.000005
     42 H                     0.118017       0.000615
     43 O                    -0.362384       0.017525
     44 O                    -0.403673       0.092033
     45 C                     0.103193       0.004205
     46 H                     0.007120      -0.000386
     47 H                     0.002386       0.001428
     48 Fe                    0.525820       4.213460
     49 O                    -0.412314       0.103188
     50 H                     0.210492       0.002566
     51 H                     0.204361       0.003862
  --------------------------------------------------------
  Sum of atomic charges =    -2.000000
  Sum of spin   charges =     5.000000

 -----------------------------------------------------------------
                    Cartesian Multipole Moments
 -----------------------------------------------------------------
    Charge (ESU x 10^10)
                -9.6064
    Dipole Moment (Debye)
         X      12.6663      Y      22.4170      Z     -19.3641
       Tot      32.2168
    Quadrupole Moments (Debye-Ang)
        XX    -282.1740     XY     -26.5790     YY    -252.3357
        XZ      46.8393     YZ      56.1250     ZZ    -296.9327
    Octopole Moments (Debye-Ang^2)
       XXX    1954.3772    XXY     390.3308    XYY     452.7697
       YYY     744.8830    XXZ    -633.4648    XYZ     -94.6311
       YYZ    -550.1799    XZZ     718.3635    YZZ     402.3746
       ZZZ   -1653.3915
    Hexadecapole Moments (Debye-Ang^3)
      XXXX  -19373.2876   XXXY   -2638.2571   XXYY   -3550.5169
      XYYY   -1695.2044   YYYY   -5920.0587   XXXZ    4853.9960
      XXYZ     926.6676   XYYZ    1339.9798   YYYZ    1643.8841
      XXZZ   -4740.9398   XYZZ   -1105.2152   YYZZ   -2665.6797
      XZZZ    5212.5247   YZZZ    2065.5536   ZZZZ   -9582.1056
 -----------------------------------------------------------------
 Calculating analytic gradient of the SCF energy
 Gradient of SCF Energy
            1           2           3           4           5           6
    1   0.0053056  -0.0642702  -0.0195748   0.0796527   0.0003844  -0.0278557
    2  -0.0052774   0.0315552  -0.0112499  -0.0420141  -0.0274503   0.0281544
    3  -0.0109880  -0.0234581  -0.0010166   0.0280263  -0.0000903  -0.0199154
            7           8           9          10          11          12
    1   0.0242101  -0.0114544   0.0365884  -0.0177784   0.0391159  -0.0193972
    2   0.0066816  -0.0183414   0.0231987   0.0065617   0.0128501  -0.0252654
    3   0.0133244   0.1079264  -0.0038291   0.0441722   0.0690987  -0.0311389
           13          14          15          16          17          18
    1  -0.0012441   0.0051337  -0.0067854  -0.0060859  -0.0188129   0.0084684
    2  -0.0086251   0.0264858  -0.0396840  -0.0236320   0.0122353   0.0067145
    3   0.0229262   0.0022318   0.0378361  -0.0231505  -0.0384821  -0.0021085
           19          20          21          22          23          24
    1   0.0532562   0.0533213   0.0257255   0.0001856   0.0242144   0.0568185
    2  -0.0164280   0.0218274   0.0130284   0.0045288  -0.0009511  -0.0924429
    3   0.0515037  -0.0076566  -0.1198421  -0.0446307   0.0013232   0.0278058
           25          26          27          28          29          30
    1  -0.0995712  -0.0170128   0.0093143  -0.0034586   0.0015450  -0.0142159
    2   0.0994679  -0.0218217  -0.0237708  -0.0229929   0.0629918  -0.0115796
    3  -0.0425442   0.0006262  -0.0289568   0.0325353   0.0058125  -0.0497225
           31          32          33          34          35          36
    1  -0.0345646  -0.0303482  -0.0338464   0.0225867  -0.0251686   0.0385924
    2  -0.0130164  -0.0183379   0.0059837  -0.0236165   0.0292089   0.0187834
    3  -0.0332401  -0.0440481   0.0426093   0.0249954  -0.0292622   0.0087172
           37          38          39          40          41          42
    1   0.0082425  -0.0612606   0.0429693  -0.0173298  -0.0371131   0.0198514
    2  -0.0365837  -0.0283276   0.0224996  -0.0144634   0.0008450  -0.0035706
    3  -0.0216927   0.1184784   0.0250999   0.0431738  -0.0818386   0.0381750
           43          44          45          46          47          48
    1   0.0417576  -0.0495532  -0.0024453  -0.0295294   0.0218057  -0.0102392
    2   0.0361903  -0.0075884  -0.0181248   0.0429000   0.0080670  -0.0052071
    3  -0.1162642  -0.0210337   0.0127885   0.0122527  -0.0404784   0.0090844
           49          50          51
    1   0.0369811   0.0246578  -0.0217686
    2   0.0375688   0.0257008  -0.0236662
    3   0.0071696   0.0284623   0.0192335
 Max gradient component =       1.198E-01
 RMS gradient           =       3.660E-02
 Computing fast CPCM-SWIG gradient
 Updating gradient with PCM contributions...
 -- total gradient after adding PCM contribution --
---------------------------------------------------
  Atom         X              Y              Z     
---------------------------------------------------
   1      -0.003994      -0.007748      -0.008340
   2       0.003272      -0.008038       0.000155
   3       0.004222      -0.002106       0.005836
   4      -0.015691       0.012681      -0.003218
   5       0.002870       0.001074       0.004350
   6      -0.002833       0.011240      -0.008184
   7       0.018316       0.004596      -0.014598
   8      -0.014324      -0.000067      -0.010661
   9       0.003973       0.002289       0.000617
  10       0.000509       0.000370       0.004139
  11      -0.008326      -0.000680      -0.011991
  12      -0.007169      -0.005238      -0.008589
  13      -0.003024      -0.002619       0.008966
  14      -0.000525       0.013483       0.001056
  15      -0.004678      -0.012830       0.015238
  16       0.010790       0.010519       0.008637
  17       0.018893      -0.007476      -0.001448
  18       0.009104       0.003763      -0.003819
  19      -0.022503      -0.005720      -0.015898
  20       0.010643      -0.003376      -0.005312
  21       0.010192       0.009724       0.010455
  22       0.013105      -0.013454       0.012046
  23       0.010459       0.007297      -0.004131
  24       0.002245       0.010600      -0.001937
  25       0.015390      -0.011884       0.006910
  26      -0.020367      -0.002357       0.012223
  27       0.001622      -0.002979      -0.003016
  28       0.000466      -0.003437       0.003007
  29      -0.000606       0.003902      -0.001022
  30      -0.002499      -0.001160      -0.003874
  31      -0.003677      -0.001774      -0.002720
  32      -0.002631      -0.001026      -0.002453
  33      -0.003479       0.001134       0.001461
  34       0.000795      -0.002551       0.002673
  35       0.000001       0.001606      -0.004874
  36       0.003823       0.001758       0.000035
  37       0.000993      -0.003382      -0.002475
  38       0.012552       0.006578      -0.013369
  39      -0.024654      -0.014151       0.011703
  40      -0.001959      -0.003413       0.002708
  41       0.015478      -0.006468       0.017630
  42      -0.000488       0.001218      -0.001812
  43      -0.013179      -0.004153       0.019025
  44       0.023595       0.007696      -0.012661
  45       0.001460      -0.007419       0.009525
  46      -0.002299       0.004671       0.000444
  47       0.002133       0.002400      -0.003159
  48      -0.003922       0.005204       0.003926
  49      -0.031399       0.006851      -0.005923
  50      -0.014038      -0.010756      -0.005654
  51       0.011363       0.015607      -0.001631
---------------------------------------------------
 Number of fixed atoms: 0
 Gradient time:  CPU 3762.30 s  wall 285.50 s

 *****************************************************
             Starting BFGS Algorithm
 *****************************************************
            LIBOPT3 RUN PARAMETERS

  Geometry Optimization Coordinates :
	Delocalized Natural Internal Coordinates

  Step Length Selection Method :
	Eigenvector Following Algorithm

  Step Length Limiter :
	Root-Mean-Square of Gradient

  Convergence Criteria :
	Max Gradient Component    	3.00000000e-04
	Max Displacement Component	1.20000000e-03
	Absolute Energy Difference	1.00000000e-06

  Initial Hessian :
	Approximate Hessian - Model Internal Coordinate

  Type of Verification :
	Verify with final updated Hessian
 *****************************************************

	OPTIMIZATION CYCLE:	1

 Scaling Magnitude of Eigenvalues
 	Minimum: -25.00000000	 Maximum: 25.00000000
 147 Hessian Eigenvalues to form next step
   0.00200000   0.00277441   0.00281228   0.00361716   0.00424038
   0.00429047   0.00482480   0.00543661   0.00558034   0.00662890
   0.00695620   0.00733864   0.00864041   0.00886985   0.00911259
   0.00973317   0.01057092   0.01090647   0.01167737   0.01379313
   0.01852933   0.02039301   0.02181198   0.02246852   0.02389190
   0.03026134   0.03361264   0.03520397   0.03665006   0.03916396
   0.04043587   0.04336970   0.04507995   0.04962297   0.05210570
   0.05253396   0.05319090   0.05398525   0.05475360   0.05556651
   0.05596562   0.05648243   0.05939020   0.05958364   0.06015240
   0.06561191   0.06702503   0.06789512   0.07373920   0.07459430
   0.08093857   0.08243217   0.08338560   0.09009470   0.09340641
   0.09395483   0.09601404   0.09745401   0.10444262   0.10729540
   0.11401987   0.11424381   0.11949256   0.11997767   0.12191805
   0.13196417   0.13632300   0.13791345   0.14224940   0.15480824
   0.15527572   0.15998628   0.16000000   0.16000000   0.16000000
   0.16000000   0.16052084   0.16331486   0.16642806   0.16931095
   0.17594798   0.17927607   0.18192113   0.19476057   0.19728528
   0.20210845   0.21234315   0.21507690   0.21595786   0.22221618
   0.22806158   0.24001141   0.24767954   0.24939197   0.24949370
   0.24963882   0.24968706   0.24995810   0.25461335   0.25573529
   0.26068215   0.26365595   0.26465936   0.26847564   0.27222452
   0.27742052   0.27806808   0.28093778   0.28664573   0.28705867
   0.30175449   0.31039863   0.31510491   0.33566218   0.34038724
   0.34099110   0.34123792   0.34157966   0.34226987   0.34417093
   0.34507569   0.34549990   0.34622402   0.34707696   0.34734071
   0.34784123   0.34820006   0.34878016   0.35044271   0.35445642
   0.35761131   0.41988132   0.45094799   0.45386408   0.46779217
   0.49777678   0.50966061   0.52554945   0.55334276   0.57683898
   0.58155409   0.82694779   0.82956980   0.83432105   0.83900390
   0.84097155   0.84831581

 Minimum Search taking a RFO step
 Searching for Lambda that minimizes along all modes
	Value of Lambda   -0.02809810
	Norm  of Stepsize  0.45811065
	RMS   of Stepsize  0.03778433

	Performing Iterative Coordinate Back-Transformation

	  Starting from Previous Position

	  iter:	0	rms: 1.0635998119e-01	maxdev: 4.1421128720e-01
	  iter:	1	rms: 4.7732344086e-03	maxdev: 2.2034489652e-02
	  iter:	2	rms: 6.5987454118e-06	maxdev: 4.0367008720e-05
	  iter:	3	rms: 3.7696023203e-11	maxdev: 2.5387353556e-10	 Success!

	Finished Iterative Coordinate Back-Transformation
 ----------------------------------------------------------------
             Standard Nuclear Orientation (Angstroms)
    I     Atom           X                Y                Z
 ----------------------------------------------------------------
    1      C      -6.1347020924    -3.6405201268     1.3950124592
    2      C      -6.3429888973    -2.1572450993     1.6777378601
    3      N      -5.2553523290    -1.6646622199     2.3652870229
    4      O      -7.3454583630    -1.5003825791     1.3859882129
    5      C      -4.1885681863    -2.7746935060     2.4838199907
    6      C      -5.5337558552    -0.3518344689     3.0610757067
    7      O      -3.3345566001    -2.8045316223     1.3870506206
    8      C      -3.3681142476    -2.6694446663     3.8035494201
    9      H      -7.0905158231    -4.1761339660     1.4672342021
   10      H      -5.7331752468    -3.7598384830     0.3768097100
   11      C      -4.3774627415     0.5774769297     3.5068413555
   12      N      -4.1817890750     1.6996324507     2.7668809417
   13      C      -6.4262818909    -0.6025934026     4.2986540202
   14      C      -3.0904658314     2.6680476304     3.0177754362
   15      C      -1.7410906858     2.0111900163     3.3947190836
   16      O      -0.5297436949     2.4066581099     2.6176473019
   17      C      -0.4138868712     1.8881777049     1.3742020320
   18      C       0.9086960213     1.1946793657     1.0776416473
   19      O      -1.3161882934     1.9832366704     0.5424283052
   20      C       0.5378146989    -0.3386221870     1.0968224727
   21      C      -0.0419534071    -0.7558690878    -0.3110524186
   22      O      -2.9828642404    -0.3248543348     1.2257747183
   23      C       1.7032142681    -1.3003351842     1.3800855959
   24      C       1.2657596235    -2.7529926312     1.7328405279
   25      O       2.1412302020    -3.5379811472     2.1126348270
   26      O      -0.4038805912    -0.4784494465     2.1407102012
   27      H      -3.4026640582     3.3666390357     3.8102045983
   28      H      -2.9633434469     3.2382481017     2.0910844919
   29      H      -1.7807705394     0.9298458391     3.2912814550
   30      H      -1.4423830500     2.2793263334     4.4128235667
   31      H       1.6299210214     1.4245941318     1.8711808316
   32      H       2.2952913905    -0.9414913940     2.2368284947
   33      H       2.3741042026    -1.3612656792     0.5085047460
   34      H      -6.1278890351     0.1901978981     2.3147866271
   35      H      -5.8966779223    -1.2617314367     4.9956995763
   36      H      -7.3642815468    -1.0783929988     3.9790417782
   37      H      -6.6702274903     0.3463044546     4.8010737070
   38      O       0.5704258533    -0.4414137339    -1.3420370796
   39      O      -1.1146150838    -1.4838953026    -0.2870459149
   40      H       1.2931131333     1.4690171862     0.0890225276
   41      O      -3.7853706260     0.4011646625     4.5772775926
   42      H      -4.6218379767     1.7462976983     1.8554438044
   43      O      -3.8626868425    -2.9659784169     4.8958784266
   44      O      -2.1320482905    -2.3089525796     3.6233537408
   45      C      -5.0909274281    -4.0270928537     2.4446269565
   46      H      -4.5039247380    -4.9169370671     2.1809666849
   47      H      -5.5535107359    -4.1589079014     3.4319939376
   48      Fe     -1.6124005224    -1.9091536356     1.6930436843
   49      O       0.0112522710    -3.1030895001     1.6098066231
   50      H      -3.6564906924    -0.7309759547     0.6567844990
   51      H      -2.5882574971     0.4653685935     0.7878332913
 ----------------------------------------------------------------
 Nuclear Repulsion Energy =        4528.44277062 hartrees
 There are      133 alpha and      128 beta electrons
 No default van der Waals radius is available for Z = 26
	Found R = 2.4400 A in the $van_der_waals section
 Discretize the solute cavity surface with Lebedev spheres
	Using 110 Lebedev grid points for each H atom
	Using 194 Lebedev grid points for other atoms
	Atomic van der Waals radii (Bondi set) will be scaled by 1.20
 Using smooth SwiG surface discretization
 Remove points where switching function is < 1.0e-08
 Keep 2966 surface tesserae and discard 5332 interior tesserae
 Molecular Surface Area = 394.515 Angst**2

 Applying Cartesian multipole field
    Component          Value
    ---------          -----
     (2,0,0)        1.00000E-12
     (0,2,0)        2.00000E-11
     (0,0,2)       -3.00000E-11
 Nucleus-field energy     =-7.6003590544e-08 hartrees
 Read the previous MOs as SCF guess

 -----------------------------------------------------------------------
  General SCF calculation program by
  Eric Jon Sundstrom, Paul Horn, Yuezhi Mao, Dmitri Zuev, Alec White,
  David Stuck, Shaama M.S., Shane Yost, Joonho Lee, David Small,
  Daniel Levine, Susi Lehtola, Hugh Burton, Evgeny Epifanovsky,
  Bang C. Huynh
 -----------------------------------------------------------------------
 Requested basis set is non-standard
 There are 258 shells and 572 basis functions
 Exchange:     0.2000 Hartree-Fock + 0.0800 Slater + 0.7200 B88
 Correlation:  0.1900 VWN1RPA + 0.8100 LYP
 Using SG-1 standard quadrature grid
 A cutoff of  1.0D-12 yielded  29447 shell pairs
 There are    135639 function pairs (    151980 Cartesian)
 Smallest overlap matrix eigenvalue = 2.41E-04
 A unrestricted SCF calculation will be
 performed using DIIS
 SCF converges when DIIS error is below 1.0e-08
 ---------------------------------------
  Cycle       Energy         DIIS error
 ---------------------------------------
    1   -2972.9994885427      7.39e-04  
    2   -2972.9447303992      1.33e-04  
    3   -2972.9414462213      2.21e-04  
    4   -2972.9472715570      4.78e-05  
    5   -2972.9474608674      2.45e-05  
    6   -2972.9475133756      1.15e-05  
    7   -2972.9475286556      2.79e-06  
    8   -2972.9475296005      1.14e-06  
    9   -2972.9475297749      4.33e-07  
   10   -2972.9475298022      2.24e-07  
   11   -2972.9475298116      9.64e-08  
   12   -2972.9475298132      3.94e-08  
   13   -2972.9475298133      1.66e-08  
   14   -2972.9475298133      7.70e-09  Convergence criterion met
 ---------------------------------------
 SCF time:   CPU 20214.29s  wall 1457.00s 
<S^2> =          8.756527402

************** Final PCM Free Energy Summary **************
 G_electrostatic  =      -0.28208720 hartree =    -177.01239212 kcal/mol
 G_cavitation     =       0.00000000 hartree =       0.00000000 kcal/mol
 G_dispersion     =       0.00000000 hartree =       0.00000000 kcal/mol
 G_repulsion      =       0.00000000 hartree =       0.00000000 kcal/mol
 --------------------------------------------------
 Non-electrostatic Free Energy =       0.00000000 hartree =       0.00000000 kcal/mol
 Total                         =      -0.28208720 hartree =    -177.01239212 kcal/mol
 --------------------------------------------------
 SCF Energy (H0 + V/2)                       =   -2972.94752981 
 Solute Internal Energy (H0)                 =   -2972.66544261 
 Total Free Energy (H0 + V/2 + non-elec)     =   -2972.94752981 hartree
                                             = -1865552.74085020 kcal/mol
***********************************************************

 SCF   energy = -2972.94752981
 Total energy = -2972.94752981
 
 --------------------------------------------------------------
 
                    Orbital Energies (a.u.)
 --------------------------------------------------------------
 
 Alpha MOs
 -- Occupied --
 -256.13373   -30.13238   -25.98666   -25.98464   -25.98071   -19.16747
  -19.14949   -19.13051   -19.11016   -19.10582   -19.10415   -19.10363
  -19.10195   -19.09389   -19.08613   -19.08513   -19.08499   -19.08327
  -14.34799   -14.34611   -10.31853   -10.28412   -10.28064   -10.27742
  -10.27457   -10.26913   -10.26013   -10.23489   -10.23022   -10.22898
  -10.22246   -10.18586   -10.18276   -10.17742   -10.17638   -10.17254
   -3.61493    -2.39353    -2.38908    -2.38278    -1.08718    -1.04312
   -1.03681    -1.03049    -1.02992    -1.02630    -1.01643    -1.00394
   -0.97155    -0.96019    -0.95132    -0.94316    -0.94223    -0.91166
   -0.90074    -0.79510    -0.76835    -0.75050    -0.73292    -0.71526
   -0.68350    -0.66442    -0.62660    -0.60715    -0.59856    -0.57271
   -0.54925    -0.54634    -0.53642    -0.53306    -0.52651    -0.50584
   -0.49704    -0.49493    -0.48682    -0.48059    -0.47736    -0.47153
   -0.46543    -0.46120    -0.45780    -0.44696    -0.44339    -0.44094
   -0.43464    -0.43254    -0.43064    -0.42407    -0.42104    -0.41770
   -0.41371    -0.41122    -0.40646    -0.40503    -0.40173    -0.39861
   -0.39225    -0.38722    -0.38629    -0.37984    -0.37681    -0.37389
   -0.37011    -0.36678    -0.36545    -0.36009    -0.35651    -0.35391
   -0.34747    -0.34417    -0.34146    -0.33289    -0.33002    -0.32143
   -0.29685    -0.29217    -0.28446    -0.27452    -0.26986    -0.26562
   -0.26484    -0.26020    -0.25529    -0.25192    -0.25011    -0.24702
   -0.24146    -0.23737    -0.23347    -0.23022    -0.22521    -0.21652
   -0.20079
 -- Virtual --
   -0.01031     0.01389     0.02173     0.03612     0.03731     0.04213
    0.05385     0.05995     0.06838     0.07348     0.07978     0.09361
    0.10310     0.10686     0.11655     0.12161     0.12425     0.13092
    0.13622     0.14062     0.14196     0.14574     0.15611     0.16139
    0.16246     0.17211     0.17468     0.17907     0.18615     0.18966
    0.19019     0.19694     0.20404     0.21097     0.21489     0.22405
    0.23143     0.23202     0.23930     0.24650     0.25897     0.26398
    0.26979     0.27462     0.27639     0.28427     0.29218     0.30588
    0.31336     0.32082     0.33043     0.33321     0.33882     0.34558
    0.35266     0.36542     0.37468     0.37698     0.38340     0.40280
    0.40435     0.41260     0.42538     0.43895     0.44273     0.44993
    0.45209     0.45548     0.46441     0.46987     0.47563     0.48437
    0.48996     0.50191     0.50698     0.51258     0.51421     0.52020
    0.52486     0.52914     0.53045     0.53959     0.54863     0.55075
    0.55563     0.56094     0.56513     0.57050     0.57330     0.58104
    0.58255     0.59212     0.59920     0.60277     0.60941     0.61279
    0.61551     0.62001     0.62182     0.62571     0.63485     0.63939
    0.64095     0.64678     0.64743     0.65337     0.65543     0.65867
    0.65966     0.66521     0.66909     0.67222     0.68397     0.68676
    0.68990     0.69224     0.69736     0.70458     0.70729     0.70881
    0.72141     0.72552     0.72953     0.73755     0.74103     0.74903
    0.76587     0.76879     0.77832     0.78518     0.78793     0.79453
    0.80290     0.81468     0.81807     0.83142     0.84239     0.84903
    0.86031     0.86406     0.86565     0.88090     0.89462     0.90060
    0.90408     0.91545     0.92097     0.94059     0.95324     0.95802
    0.97530     0.97937     0.99260     1.00002     1.01903     1.02077
    1.02599     1.03893     1.04970     1.05449     1.06026     1.06885
    1.07614     1.08440     1.09071     1.10229     1.10870     1.11180
    1.11514     1.12751     1.13336     1.13919     1.14459     1.14611
    1.15834     1.15906     1.16576     1.17192     1.17555     1.18811
    1.19365     1.20164     1.20839     1.21241     1.22277     1.22674
    1.23796     1.24274     1.24652     1.25530     1.26483     1.26518
    1.27869     1.28109     1.29078     1.30249     1.30476     1.31069
    1.32392     1.33102     1.33207     1.34131     1.34414     1.35075
    1.35835     1.36513     1.37066     1.37969     1.38483     1.39301
    1.40018     1.41150     1.42729     1.43357     1.43777     1.44363
    1.45729     1.46004     1.46899     1.47123     1.47940     1.48900
    1.50436     1.51144     1.52137     1.53096     1.53961     1.54894
    1.55862     1.56122     1.56713     1.57023     1.57855     1.58540
    1.58939     1.59972     1.60352     1.61130     1.62604     1.63116
    1.63650     1.64614     1.64983     1.65082     1.65655     1.66213
    1.66807     1.66947     1.67560     1.68467     1.68907     1.69532
    1.69854     1.71015     1.71244     1.71927     1.72570     1.73108
    1.73190     1.73768     1.74609     1.74954     1.75582     1.76286
    1.76561     1.77507     1.77790     1.78939     1.79531     1.79882
    1.80387     1.80521     1.80928     1.82207     1.83331     1.83837
    1.84698     1.85041     1.85722     1.86928     1.87389     1.88045
    1.89089     1.89360     1.90628     1.90979     1.92595     1.93357
    1.94328     1.94630     1.95967     1.96709     1.97319     1.98219
    1.98515     1.99781     2.00254     2.00695     2.01430     2.02303
    2.02602     2.03664     2.03917     2.04393     2.06915     2.06946
    2.07259     2.08815     2.09345     2.10271     2.11499     2.12065
    2.12961     2.13560     2.14149     2.14914     2.16768     2.17096
    2.17846     2.18424     2.19495     2.20943     2.21421     2.22000
    2.23407     2.24567     2.25913     2.26817     2.27633     2.29178
    2.30058     2.31172     2.32107     2.32958     2.34981     2.36241
    2.38089     2.38598     2.40305     2.41220     2.41924     2.42486
    2.43170     2.44863     2.46313     2.46917     2.47436     2.48543
    2.49137     2.49674     2.50384     2.51812     2.52577     2.53639
    2.55688     2.57364     2.57999     2.59853     2.60679     2.61552
    2.63582     2.64584     2.64939     2.66117     2.66201     2.67320
    2.67624     2.68591     2.69654     2.71158     2.71566     2.71676
    2.72717     2.73352     2.73810     2.74371     2.75084     2.75589
    2.76992     2.77861     2.80046     2.80303     2.83820     2.84681
    2.85216     2.86580     2.89210     2.90063     2.92511     2.94247
    2.95114     2.95858     2.96935     2.98125     2.98924     3.00148
    3.01075     3.01873     3.03692     3.04028     3.05083     3.06458
    3.08093     3.09416     3.10104     3.11471     3.12060     3.14187
    3.14452     3.17678     3.19159     3.19720     3.20736     3.23121
    3.23797     3.29510     3.35504     3.35808     3.37775     3.38949
    3.40694     3.42657     3.44032     3.44454     3.45157     3.45780
    3.47428     3.47988     3.48844     3.49499     3.50399     3.51462
    3.52681     3.55681     3.58867     3.60191     3.61967     3.64322
    3.86028
 
 Beta MOs
 -- Occupied --
 -256.13190   -30.03893   -25.90784   -25.90640   -25.90424   -19.16744
  -19.14737   -19.13051   -19.10685   -19.10414   -19.10363   -19.10209
  -19.09883   -19.09337   -19.08460   -19.08458   -19.08130   -19.07726
  -14.34797   -14.34600   -10.31853   -10.28412   -10.28061   -10.27740
  -10.27457   -10.26908   -10.26008   -10.23489   -10.23018   -10.22898
  -10.22246   -10.18576   -10.18275   -10.17728   -10.17627   -10.17253
   -3.39748    -2.16229    -2.15958    -2.15658    -1.08711    -1.03993
   -1.03322    -1.03000    -1.02680    -1.02613    -1.01269    -1.00365
   -0.96533    -0.95190    -0.94622    -0.93740    -0.93551    -0.91152
   -0.89772    -0.79450    -0.76697    -0.74903    -0.73260    -0.71484
   -0.68175    -0.66427    -0.62636    -0.60551    -0.59758    -0.57249
   -0.54704    -0.54523    -0.53451    -0.53153    -0.52053    -0.49654
   -0.49030    -0.48346    -0.47998    -0.47777    -0.47532    -0.46685
   -0.46139    -0.45702    -0.44844    -0.44080    -0.43552    -0.43324
   -0.43081    -0.42648    -0.41717    -0.41597    -0.41445    -0.41050
   -0.40556    -0.40227    -0.39977    -0.39862    -0.38678    -0.37954
   -0.37756    -0.37623    -0.37027    -0.36738    -0.36413    -0.36212
   -0.35533    -0.35330    -0.34994    -0.34421    -0.33515    -0.32993
   -0.32893    -0.30144    -0.29581    -0.28599    -0.28230    -0.28010
   -0.27178    -0.26981    -0.26495    -0.25536    -0.25210    -0.24984
   -0.24758    -0.24414    -0.24390    -0.23727    -0.23205    -0.23086
   -0.22478    -0.21387
 -- Virtual --
   -0.07449    -0.06858    -0.06467    -0.03227    -0.01419    -0.00701
    0.01454     0.02213     0.03794     0.04085     0.04474     0.05478
    0.06170     0.06920     0.07408     0.08021     0.09394     0.10393
    0.10721     0.11716     0.12212     0.12462     0.13128     0.13652
    0.14120     0.14292     0.14602     0.15808     0.16179     0.16350
    0.17368     0.17723     0.17972     0.18679     0.19052     0.19110
[...]
    3.14372     3.15191     3.15835     3.16374     3.17160     3.18459
    3.19784     3.20164     3.21088     3.22083     3.24713     3.26932
    3.32811     3.37300     3.37914     3.38522     3.39292     3.39745
    3.41729     3.43757     3.44989     3.45673     3.46692     3.47807
    3.48271     3.48969     3.49493     3.50402     3.53302     3.54989
    3.56836     3.58452     3.60495     3.64316     3.75680     3.80424
 --------------------------------------------------------------
 
          Ground-State Mulliken Net Atomic Charges

     Atom                 Charge (a.u.)    Spin (a.u.)
  --------------------------------------------------------
      1 C                     0.006748       0.000078
      2 C                     0.143814       0.000266
      3 N                    -0.224808       0.005868
      4 O                    -0.345022       0.001714
      5 C                     0.074250       0.005734
      6 C                     0.033737      -0.000235
      7 O                    -0.515009       0.155640
      8 C                     0.212509       0.002920
      9 H                     0.032887      -0.000044
     10 H                     0.052993       0.000268
     11 C                     0.128777       0.000021
     12 N                    -0.133632       0.000736
     13 C                     0.016074      -0.000347
     14 C                     0.066643       0.000081
     15 C                     0.163708       0.000097
     16 O                    -0.252451       0.000227
     17 C                     0.197247      -0.000083
     18 C                     0.158175       0.006945
     19 O                    -0.317418       0.000505
     20 C                    -0.140542       0.001749
     21 C                     0.239896       0.005970
     22 O                    -0.333746       0.000545
     23 C                     0.100109       0.007686
     24 C                     0.156922       0.002036
     25 O                    -0.361295       0.017304
     26 O                    -0.471995       0.274776
     27 H                     0.029012      -0.000017
     28 H                    -0.008239       0.000004
     29 H                     0.028095      -0.000005
     30 H                     0.034978      -0.000023
     31 H                     0.028602       0.000148
     32 H                     0.042283      -0.000170
     33 H                     0.023820       0.002286
     34 H                     0.009597       0.000243
     35 H                     0.075650       0.000477
     36 H                     0.032653      -0.000014
     37 H                     0.028420      -0.000053
     38 O                    -0.333616       0.021802
     39 O                    -0.423010       0.094909
     40 H                     0.025545       0.002316
     41 O                    -0.361633       0.000086
     42 H                     0.151951       0.001118
     43 O                    -0.340680       0.019906
     44 O                    -0.391587       0.094037
     45 C                     0.082387       0.005020
     46 H                     0.032789      -0.000311
     47 H                     0.012391       0.000751
     48 Fe                    0.607049       4.169239
     49 O                    -0.404362       0.097347
     50 H                     0.173914       0.000499
     51 H                     0.155418      -0.000054
  --------------------------------------------------------
  Sum of atomic charges =    -2.000000
  Sum of spin   charges =     5.000000

 -----------------------------------------------------------------
                    Cartesian Multipole Moments
 -----------------------------------------------------------------
    Charge (ESU x 10^10)
                -9.6064
    Dipole Moment (Debye)
         X      19.6539      Y      17.6428      Z     -18.2467
       Tot      32.1012
    Quadrupole Moments (Debye-Ang)
        XX    -328.2602     XY      -0.7248     YY    -277.9820
        XZ      71.5796     YZ      54.3991     ZZ    -279.5980
    Octopole Moments (Debye-Ang^2)
       XXX    2247.7360    XXY     266.3971    XYY     564.9289
       YYY     927.6650    XXZ    -880.5785    XYZ     -61.9552
       YYZ    -699.5092    XZZ     811.3783    YZZ     364.1362
       ZZZ   -1555.7870
    Hexadecapole Moments (Debye-Ang^3)
      XXXX  -20935.3712   XXXY   -1491.0867   XXYY   -4196.0266
      XYYY   -1955.4331   YYYY   -7366.8740   XXXZ    6700.3924
      XXYZ     889.1397   XYYZ    1922.0976   YYYZ    2644.4647
      XXZZ   -5659.2307   XYZZ    -833.7172   YYZZ   -3374.1563
      XZZZ    5152.8190   YZZZ    2048.3506   ZZZZ   -9019.3297
 -----------------------------------------------------------------
 Calculating analytic gradient of the SCF energy
 Gradient of SCF Energy
            1           2           3           4           5           6
    1   0.0076802  -0.0695149  -0.0238356   0.0948007   0.0017093  -0.0072680
    2   0.0048036   0.0618026  -0.0013845  -0.0784443  -0.0058662   0.0032279
    3  -0.0015501   0.0239995  -0.0133006  -0.0259704  -0.0224431   0.0324357
            7           8           9          10          11          12
    1   0.0073395  -0.0184574   0.0338253  -0.0081937  -0.0125519  -0.0012344
    2  -0.0146872  -0.0783101   0.0182843  -0.0219003   0.0876400  -0.0403639
    3   0.0131325   0.0908467   0.0028088   0.0354445   0.0246057   0.0011198
           13          14          15          16          17          18
    1   0.0116726  -0.0077504  -0.0137444   0.0055234  -0.0065492   0.0031303
    2  -0.0080156   0.0120861   0.0206643  -0.0019303   0.0370276   0.0039345
    3   0.0005020  -0.0054228   0.0037098  -0.0430377  -0.0499280  -0.0021668
           19          20          21          22          23          24
    1   0.0144613   0.0323415   0.0417840   0.0725135   0.0223561   0.0654872
    2  -0.0489579   0.0261637   0.0290057  -0.0188914  -0.0040482  -0.0945978
    3   0.0949884   0.0131134  -0.1276541   0.0867156   0.0086094   0.0057814
           25          26          27          28          29          30
    1  -0.1195984  -0.0023596   0.0332544  -0.0095353   0.0112496  -0.0049107
    2   0.0955069  -0.0198151  -0.0255656   0.0045504  -0.0143380  -0.0324825
    3  -0.0153693  -0.0158795   0.0028234   0.0335049  -0.0392261   0.0206148
           31          32          33          34          35          36
    1  -0.0132058  -0.0102737  -0.0385745   0.0394565  -0.0485503   0.0153032
    2  -0.0067587  -0.0090632  -0.0098294  -0.0053640   0.0086724   0.0373290
    3  -0.0394939  -0.0462424   0.0252596  -0.0250703   0.0219930  -0.0224915
           37          38          39          40          41          42
    1  -0.0036553  -0.0898000   0.0472287  -0.0338649   0.0329115  -0.0207451
    2  -0.0305158  -0.0439978   0.0253720  -0.0120933  -0.0988479   0.0523179
    3  -0.0303876   0.1133816   0.0270960   0.0247697  -0.0641560   0.0239361
           43          44          45          46          47          48
    1   0.0698272  -0.0599896  -0.0109194  -0.0212107   0.0148547  -0.0096355
    2   0.0842053   0.0159179  -0.0129027   0.0138400   0.0323605   0.0025740
    3  -0.0920452  -0.0111366  -0.0068961   0.0369863  -0.0186634   0.0087789
           49          50          51
    1   0.0515844  -0.0270655  -0.0373010
    2   0.0405974   0.0603243  -0.0392362
    3   0.0130969  -0.0349018  -0.0366216
 Max gradient component =       1.277E-01
 RMS gradient           =       4.110E-02
 Computing fast CPCM-SWIG gradient
 Updating gradient with PCM contributions...
 -- total gradient after adding PCM contribution --
---------------------------------------------------
  Atom         X              Y              Z     
---------------------------------------------------
   1       0.000019       0.000022      -0.000021
   2      -0.000019      -0.000031       0.000022
   3       0.000004       0.000004      -0.000014
   4      -0.000001       0.000015      -0.000031
   5       0.000006      -0.000020      -0.000036
   6      -0.000013       0.000010      -0.000022
   7      -0.000023       0.000039      -0.000003
   8      -0.000006       0.000051       0.000050
   9      -0.000001       0.000003      -0.000002
  10       0.000002      -0.000005      -0.000011
  11       0.000003       0.000018       0.000018
  12       0.000035       0.000041      -0.000005
  13      -0.000025       0.000005      -0.000015
  14      -0.000007      -0.000014      -0.000006
  15      -0.000015      -0.000006      -0.000009
  16      -0.000012       0.000014      -0.000025
  17       0.000018       0.000031      -0.000023
  18      -0.000004      -0.000011       0.000000
  19      -0.000009      -0.000018       0.000041
  20       0.000074       0.000007      -0.000019
  21       0.000017      -0.000008       0.000011
  22       0.000064      -0.000022       0.000074
  23      -0.000021      -0.000015      -0.000008
  24      -0.000016       0.000007       0.000039
  25      -0.000013      -0.000007       0.000026
  26      -0.000093      -0.000006       0.000034
  27       0.000001      -0.000000      -0.000015
  28       0.000005      -0.000004      -0.000001
  29      -0.000007       0.000007      -0.000007
  30       0.000006       0.000002      -0.000007
  31       0.000000      -0.000011       0.000002
  32      -0.000005       0.000003       0.000013
  33       0.000008       0.000004       0.000016
  34      -0.000013       0.000020      -0.000002
  35       0.000002       0.000006      -0.000001
  36      -0.000015       0.000009      -0.000009
  37      -0.000010       0.000016      -0.000007
  38      -0.000012      -0.000017       0.000036
  39       0.000020      -0.000022      -0.000002
  40       0.000007       0.000005       0.000002
  41       0.000001      -0.000019      -0.000028
  42       0.000017      -0.000010      -0.000016
  43       0.000019      -0.000013      -0.000015
  44      -0.000025      -0.000030       0.000014
  45      -0.000002      -0.000004      -0.000007
  46       0.000006      -0.000007       0.000003
  47      -0.000005      -0.000003      -0.000001
  48      -0.000007      -0.000064       0.000070
  49       0.000049       0.000043      -0.000061
  50       0.000011      -0.000019      -0.000017
  51      -0.000014       0.000002      -0.000027
---------------------------------------------------
 Number of fixed atoms: 0
 Gradient time:  CPU 3186.27 s  wall 262.03 s

     Step 59	:
        Energy is -2973.0090094131
                            Maximum         Tolerance       Converged?
         Gradient           1.22703780e-04	3.00000000e-04	true
         Displacement       2.70226938e-03	1.20000000e-03	false
         Energy change      7.41309123e-07	1.00000000e-06	true

	 Optimization Converged in 59 cycles

 *****************************************************
             End of BFGS Algorithm
 *****************************************************
		----------------------------------
		   Verification of Optimization
		----------------------------------

 Eigenvalues of Hessian in Optimization Verification
   0.00112578   0.00217393   0.00240028   0.00331133   0.00446407
   0.00488212   0.00529847   0.00630595   0.00648828   0.00732390
   0.00830988   0.00987071   0.01061213   0.01077839   0.01362667
   0.01540292   0.01973607   0.02159593   0.02501502   0.02771202
   0.03069420   0.03142079   0.03322451   0.03428411   0.03531385
   0.03659501   0.03869775   0.04116992   0.04466147   0.04522416
   0.04677815   0.04879964   0.05085360   0.05180900   0.05357767
   0.05409940   0.05432353   0.05522446   0.05612640   0.05683362
   0.05818871   0.05908217   0.05983792   0.06141085   0.06412640
   0.06748508   0.06819782   0.07114137   0.07466352   0.07508550
   0.07668015   0.08104560   0.08758432   0.08929242   0.09356465
   0.09583173   0.09671361   0.09935565   0.10226039   0.10585441
   0.11061169   0.11568934   0.11581670   0.12011698   0.12367205
   0.13234520   0.13372482   0.14071638   0.14590135   0.15045488
   0.15585127   0.15786831   0.15949051   0.16081867   0.16239188
   0.16624567   0.17153696   0.17730208   0.18281942   0.19593196
   0.19781272   0.21059172   0.21794968   0.22214758   0.22694089
   0.23487285   0.24849880   0.24954695   0.24999052   0.25103296
   0.25206634   0.25396215   0.25796790   0.26012302   0.26472392
   0.26845431   0.27186652   0.27324676   0.27620248   0.27798491
   0.28438517   0.28466487   0.28745074   0.28837451   0.29507048
   0.30141075   0.31833514   0.33522190   0.33973777   0.34073155
   0.34146197   0.34205503   0.34270544   0.34373821   0.34441733
   0.34579265   0.34627624   0.34674729   0.34711917   0.34794974
   0.34819868   0.35167620   0.35388992   0.35551452   0.36167466
   0.36541536   0.38145331   0.40444237   0.43862948   0.45208207
   0.45808554   0.46759963   0.48210476   0.49783675   0.52040915
   0.54651385   0.55990216   0.58106345   0.61862450   0.82313837
   0.82711769   0.83668781   0.83986402   0.84395494   0.84933252
   2.50669186   5.09229591

 Found a minimum
		---------------------------------
		       End of Verification
		---------------------------------

 Final energy is -2973.009009413138

	******************************
	**  OPTIMIZATION CONVERGED  **
	******************************
 ----------------------------------------------------------------
             Standard Nuclear Orientation (Angstroms)
    I     Atom           X                Y                Z
 ----------------------------------------------------------------
    1      C      -6.6336542146    -2.5144530034     1.1989286816
    2      C      -6.6176553097    -1.5509682797     2.3710118639
    3      N      -5.4355530913    -1.7029586214     3.0566753959
    4      O      -7.4934424162    -0.7388316835     2.6651710493
    5      C      -4.4988904334    -2.6392512418     2.3795621546
    6      C      -5.1361840070    -0.7181122098     4.1089741297
    7      O      -3.5570873390    -1.9474582325     1.6212336591
    8      C      -3.7731944823    -3.5955704437     3.3816576940
    9      H      -7.6158778663    -2.9986432371     1.1075988985
   10      H      -6.4644717667    -1.9230221702     0.2835074015
   11      C      -4.7535943590     0.6856559041     3.5781188950
   12      N      -4.0689781674     0.7289389858     2.4197778472
   13      C      -4.1175480301    -1.1739396583     5.1573620167
   14      C      -3.6930333591     1.9725314741     1.7647986674
   15      C      -2.5940905009     2.7818173155     2.4595441681
   16      O      -1.3631498777     2.0448129692     2.6839696553
   17      C      -0.5661289060     1.8192080595     1.6301331877
   18      C       0.6338919103     0.9658343510     1.9804007333
   19      O      -0.8063697338     2.2416598070     0.5074838633
   20      C       0.2932606530    -0.5403230890     1.8185104464
   21      C      -0.0168994897    -0.8497626808     0.3126256755
   22      O      -2.5029763565     0.6225375415    -1.2357118549
   23      C       1.4800438509    -1.4352157265     2.2330446365
   24      C       1.2419779767    -2.9583885229     2.1265426493
   25      O       2.2143143833    -3.7059523745     2.2562264677
   26      O      -0.8200659337    -0.8377706467     2.6314957225
   27      H      -4.5694238233     2.6424537572     1.7071398905
   28      H      -3.3931133462     1.7120177283     0.7423439647
   29      H      -2.9125026278     3.0730723706     3.4669610491
   30      H      -2.3769081289     3.6800720093     1.8622207580
   31      H       0.9326022344     1.1475611125     3.0220359635
   32      H       1.7320862941    -1.2181775717     3.2853208471
   33      H       2.3730939006    -1.2035544249     1.6327781016
   34      H      -6.0952130142    -0.5421447122     4.6160263782
   35      H      -3.1203603899    -1.3455611389     4.7261523790
   36      H      -4.4528924134    -2.0965324817     5.6488764339
   37      H      -4.0284984627    -0.3799758840     5.9133788995
   38      O       0.7527267753    -0.4874726724    -0.5740668925
   39      O      -1.1153031903    -1.5362350943     0.1163476464
   40      H       1.4522414291     1.2313287905     1.2995014277
   41      O      -5.0565669215     1.6897357805     4.2367764993
   42      H      -3.8543699724    -0.1654672280     1.9579332869
   43      O      -4.4110435427    -4.2902588057     4.1713901051
   44      O      -2.4782001830    -3.6116376898     3.2514463765
   45      C      -5.4788609875    -3.4681518611     1.4983162331
   46      H      -4.9512367036    -3.8339502449     0.6078229464
   47      H      -5.8387735991    -4.3263503538     2.0829713326
   48      Fe     -1.6735560022    -2.3348203965     1.9134207795
   49      O       0.0303726202    -3.4013739760     1.9145412363
   50      H      -2.1890181585    -0.2214075339    -0.8540090918
   51      H      -1.8842047204     1.2602961352    -0.8366403559
 ----------------------------------------------------------------
 Nuclear Repulsion Energy =        4454.83802821 hartrees
 There are      133 alpha and      128 beta electrons

Z-matrix Print:
$molecule
-2 6
Fe
O  1 1.866878
C  2 1.410289 1 107.957232
C  3 1.543090 2 109.267003 1 -82.845512 0
H  4 1.100693 3 110.820784 2 -178.370731 0
H  4 1.103592 3 108.526502 2 -61.088037 0
C  4 1.545339 3 115.761150 2 59.367672 0
O  7 1.233332 4 117.952471 3 169.563078 0
O  7 1.307352 4 119.204552 3 -10.922425 0
C  3 1.552658 2 108.522653 1 155.431277 0
H  10 1.097181 3 109.490896 2 -175.922851 0
H  10 1.098752 3 108.598207 2 63.690275 0
C  10 1.513600 3 110.417306 2 -56.968635 0
O  13 1.223324 10 124.247306 3 -89.992244 0
O  13 1.340415 10 112.605027 3 88.721992 0
C  15 1.452156 13 117.900943 10 -176.222107 0
H  16 1.095949 15 103.832967 13 -164.847858 0
H  16 1.100375 15 109.322772 13 -47.671643 0
C  16 1.531434 15 114.216517 13 74.833390 0
H  19 1.096920 16 110.619535 15 -65.593905 0
H  19 1.104618 16 105.814076 15 177.445137 0
N  19 1.454941 16 115.650461 15 55.816722 0
H  22 1.029233 19 119.136060 16 -112.585308 0
C  22 1.346227 19 123.108872 16 71.076572 0
O  24 1.238466 22 123.776138 19 -4.591371 0
C  24 1.548789 22 116.723326 19 177.092764 0
H  26 1.099001 24 103.213403 22 -147.433691 0
N  26 1.472032 24 114.305944 22 -33.949479 0
C  28 1.374991 26 117.217200 24 -72.256294 0
O  29 1.230081 28 124.459776 26 -7.674033 0
C  28 1.487435 26 128.206161 24 90.349235 0
O  31 1.393066 28 111.158035 26 -65.505288 0
C  29 1.517346 28 108.909455 26 171.009407 0
H  33 1.098883 29 110.696016 28 136.944935 0
H  33 1.102909 29 107.398757 28 -105.707067 0
C  33 1.527325 29 103.715882 28 13.507028 0
H  36 1.097804 33 114.358808 29 -146.186041 0
H  36 1.099028 33 110.137030 29 90.423080 0
C  26 1.531181 24 109.887069 22 97.347995 0
H  39 1.097825 26 110.702437 24 171.664907 0
H  39 1.099899 26 112.405454 24 -66.506945 0
H  39 1.099941 26 108.033932 24 52.530293 0
C  31 1.563770 28 112.672630 26 58.231912 0
O  43 1.230090 31 121.074084 28 54.203747 0
O  43 1.301623 31 113.900374 28 -128.369535 0
C  3 1.568324 2 110.841243 1 35.068946 0
O  46 1.228740 3 120.720548 2 169.869036 0
O  46 1.310061 3 114.397251 2 -11.843634 0
H  48 1.955308 46 100.509779 3 114.905825 0
O  49 0.978013 48 161.846505 46 -13.503996 0
H  50 0.974101 49 101.604572 48 -6.847742 0
$end

 -----------------------------------------------------------------------
                  END OF GEOMETRY OPTIMIZER USING LIBOPT3               
 -----------------------------------------------------------------------
 Total job time:  85309.05s(wall), 1138712.68s(cpu) 
 Mon Sep  8 12:59:39 2025

        *************************************************************
        *                                                           *
        *  Thank you very much for using Q-Chem.  Have a nice day.  *
        *                                                           *
        *************************************************************


