You are running Q-Chem version: 6.2.0

#
# job setting
#
local host:  itcotck
current dir: /home/cooksy_group/sgardner/kupper
input file:  FeVF1_RSR_CAMB3LYP_augCCpVDZ_PCM_h2o_tddft100.in
output file: 
nprocs     : 1
nthreads   : 16
#
# qchem installation setting
#
QC:          /opt/qchem/6.2.0
QCAUX:       /opt/qchem/6.2.0/qcaux
QCPROG:      /opt/qchem/6.2.0/exe/qcprog.exe_s
QCPROG_S:    /opt/qchem/6.2.0/exe/qcprog.exe_s
PARALLEL:    -DSERIAL
QCMPI:       seq
#
# qchem directory setting
#
qcrun:       qchem16304
QCSCRATCH:   /scratch/cooksy_group
QCLOCALSCR:  
QCTMPDIR:    /scratch/cooksy_group
QCFILEPREF:  /scratch/cooksy_group/qchem16304
QCSAVEDIR:   
workdirs:    /scratch/cooksy_group/qchem16304
workdir0:    /scratch/cooksy_group/qchem16304
partmpdirs =  
#
# parallel setting
#
Local Q-Chem execution detected. One physical node assumed.
The number of nodes requested is optimal
QCRSH:           ssh
QCMPI:           seq
QCMPIRUN:        
QCMACHINEFILE:   /opt/qchem/6.2.0/bin/mpi/machines


#
# env setting
#
exported envs:   QC QCAUX QCSCRATCH QCRUNNAME QCFILEPREF QCPROG QCPROG_S GUIFILE

Running Job 1 of 1 FeVF1_RSR_CAMB3LYP_augCCpVDZ_PCM_h2o_tddft100.in
qchem FeVF1_RSR_CAMB3LYP_augCCpVDZ_PCM_h2o_tddft100.in_16304.0 /scratch/cooksy_group/qchem16304/ 1
/opt/qchem/6.2.0/exe/qcprog.exe_s FeVF1_RSR_CAMB3LYP_augCCpVDZ_PCM_h2o_tddft100.in_16304.0 /scratch/cooksy_group/qchem16304/
                  Welcome to Q-Chem
     A Quantum Leap Into The Future Of Chemistry


 Q-Chem 6.2, Q-Chem, Inc., Pleasanton, CA (2024)

 E. Epifanovsky,  A. T. B. Gilbert,  Xintian Feng,  Joonho Lee,  Yuezhi Mao,  
 N. Mardirossian,  P. Pokhilko,  A. White,  M. Wormit,  M. P. Coons,  
 A. L. Dempwolff,  Zhengting Gan,  D. Hait,  P. R. Horn,  L. D. Jacobson,  
 I. Kaliman,  J. Kussmann,  A. W. Lange,  Ka Un Lao,  D. S. Levine,  Jie Liu,  
 S. C. McKenzie,  A. F. Morrison,  K. D. Nanda,  F. Plasser,  D. R. Rehn,  
 M. L. Vidal,  Zhi-Qiang You,  Ying Zhu,  Huseyin Aksu,  B. Alam,  
 B. Albrecht,  A. Aldossary,  E. Alguire,  J. H. Andersen,  
 J. E. Arias-Martinez,  V. Athavale,  D. Barton,  K. Begam,  A. Behn,  
 N. Bellonzi,  Y. A. Bernard,  E. J. Berquist,  H. Burton,  A. Carreras,  
 K. Carter-Fenk,  Mathew Chow,  Romit Chakraborty,  Chandrima Chakravarty,  
 Junhan Chen,  A. D. Chien,  K. D. Closser,  V. Cofer-Shabica,  L. Cunha,  
 S. Dasgupta,  Jia Deng,  Joseph Dickinson,  M. de Wergifosse,  
 M. Diedenhofen,  Hainam Do,  Wenjie Dou,  S. Ehlert,  Po-Tung Fang,  
 S. Fatehi,  Qingguo Feng,  Jonathan Fetherolf,  T. Friedhoff,  
 Thomas Froitzheim,  Sarai Folkestad,  B. Ganoe,  J. Gayvert,  Qinghui Ge,  
 G. Gidofalvi,  M. Gimferrer,  M. Goldey,  Montgomery Gray,  J. Gomes,  
 C. Gonzalez-Espinoza,  S. Gulania,  A. Gunina,  J. A. Gyamfi,  
 M. W. D. Hanson-Heine,  P. H. P. Harbach,  A. W. Hauser,  M. F. Herbst,  
 M. Hernandez Vera,  M. Hodecker,  Z. C. Holden,  S. Houck,  Xunkun Huang,  
 Kerwin Hui,  B. C. Huynh,  K. Ikeda,  M. Ivanov,  Nayanthara K. Jayadev,  
 Hyunjun Ji,  Zuxin Jin,  Hanjie Jiang,  Subrata Jana,  B. Kaduk,  
 S. Kaehler,  R. Kang,  K. Khistyaev,  Jaehoon Kim,  Yongbin Kim,  
 P. Klunzinger,  Z. Koczor-Benda,  Joong Hoon Koh,  D. Kosenkov,  
 Saikiran Kotaru,  L. Koulias,  T. Kowalczyk,  C. M. Krauter,  K. Kue,  
 A. Kunitsa,  T. Kus,  A. Landau,  K. V. Lawler,  D. Lefrancois,  S. Lehtola,  
 Rain Li,  Shaozhi Li,  Tao E. Li,  Yi-Pei Li,  Jiashu Liang,  M. Liebenthal,  
 Hung-Hsuan Lin,  You-Sheng Lin,  Fenglai Liu,  Kuan-Yu Liu,  Xiao Liu,  
 M. Loipersberger,  A. Luenser,  C. Malbon,  Aniket Mandal,  Manisha,  
 A. Manjanath,  P. Manohar,  E. Mansoor,  S. F. Manzer,  Shan-Ping Mao,  
 A. V. Marenich,  T. Markovich,  S. Mason,  F. Matz,  S. A. Maurer,  
 Samuel May,  Alexandra McIsaac,  P. F. McLaughlin,  M. F. S. J. Menger,  
 J.-M. Mewes,  S. A. Mewes,  P. Morgante,  Mohammad Mostafanejad,  
 Madhubani Mukherjee,  J. W. Mullinax,  Quyen Nguyen,  Avik Kumar Ojha,  
 K. J. Oosterbaan,  Eno Paenurk,  Xiaoliang Pan,  G. Paran,  V. Parravicini,  
 Alexander C. Paul,  Suranjan K. Paul,  F. Pavosevic,  Zheng Pei,  S. Prager,  
 E. I. Proynov,  E. Ramos,  B. Rana,  A. E. Rask,  A. Rettig,  R. M. Richard,  
 F. Rob,  E. Rossomme,  T. Scheele,  M. Scheurer,  M. Schneider,  
 P. E. Schneider,  Tim K. Schramm,  N. Sergueev,  S. M. Sharada,  
 Hengyuan Shen,  W. Skomorowski,  D. W. Small,  C. J. Stein,  
 Alistair J. Sterling,  Yingli Su,  Yu-Chuan Su,  E. J. Sundstrom,  
 J. Talbot,  Zhen Tao,  J. Thirman,  Hung-Yi Tsai,  T. Tsuchimochi,  
 N. M. Tubman,  C. Utku,  S. P. Veccham,  O. Vydrov,  Rahel Weiss,  
 J. Wenzel,  Jonathan Wong,  J. Witte,  H. Wu,  Yanze Wu,  A. Yamada,  
 Chou-Hsun Yang,  Kun Yao,  S. Yeganeh,  S. R. Yost,  Qi Yu,  A. Zech,  
 F. Zeller,  Chongxiao Zhao,  Igor Ying Zhang,  Xing Zhang,  Yu Zhang,  
 D. Zuev,  A. Aspuru-Guzik,  A. T. Bell,  N. A. Besley,  K. B. Bravaya,  
 B. R. Brooks,  D. Casanova,  Jeng-Da Chai,  Hsing-Ta Chen,  S. Coriani,  
 C. J. Cramer,  A. E. DePrince, III,  R. A. DiStasio Jr.,  A. Dreuw,  
 B. D. Dunietz,  T. R. Furlani,  W. A. Goddard III,  S. Grimme,  
 S. Hammes-Schiffer,  T. Head-Gordon,  W. J. Hehre,  Chao-Ping Hsu,  
 T.-C. Jagau,  Yousung Jung,  A. Klamt,  Jing Kong,  D. S. Lambrecht,  
 Xiangyuan Li,  WanZhen Liang,  N. J. Mayhall,  C. W. McCurdy,  J. B. Neaton,  
 T. Neudecker,  C. Ochsenfeld,  J. A. Parkhill,  R. Peverati,  
 V. A. Rassolov,  Haisheng Ren,  Yihan Shao,  L. V. Slipchenko,  
 R. P. Steele,  J. E. Subotnik,  A. J. W. Thom,  A. Tkatchenko,  
 D. G. Truhlar,  T. Van Voorhis,  Fan Wang,  T. A. Wesolowski,  K. B. Whaley,  
 H. L. Woodcock III,  P. M. Zimmerman,  S. Faraji,  P. M. W. Gill,  
 M. Head-Gordon,  J. M. Herbert,  A. I. Krylov

 Contributors to earlier versions of Q-Chem not listed above: 
 R. D. Adamson,  B. Austin,  R. Baer,  J. Baker,  G. J. O. Beran,  
 K. Brandhorst,  S. T. Brown,  E. F. C. Byrd,  Arup K. Chakraborty,  
 G. K. L. Chan,  Chun-Min Chang,  Yunqing Chen,  C.-L. Cheng,  
 Siu Hung Chien,  D. M. Chipman,  D. L. Crittenden,  H. Dachsel,  
 R. J. Doerksen,  A. D. Dutoi,  R. G. Edgar,  J. Fosso-Tande,  
 L. Fusti-Molnar,  D. Ghosh,  A. Ghysels,  A. Golubeva-Zadorozhnaya,  
 J. Gonthier,  M. S. Gordon,  S. R. Gwaltney,  G. Hawkins,  J. E. Herr,  
 A. Heyden,  S. Hirata,  E. G. Hohenstein,  G. Kedziora,  F. J. Keil,  
 C. Kelley,  Jihan Kim,  R. A. King,  R. Z. Khaliullin,  P. P. Korambath,  
 W. Kurlancheek,  A. Laurent,  A. M. Lee,  M. S. Lee,  S. V. Levchenko,  
 Ching Yeh Lin,  D. Liotard,  E. Livshits,  R. C. Lochan,  I. Lotan,  
 L. A. Martinez-Martinez,  P. E. Maslen,  N. Nair,  D. P. O'Neill,  
 D. Neuhauser,  E. Neuscamman,  C. M. Oana,  R. Olivares-Amaya,  R. Olson,  
 T. M. Perrine,  B. Peters,  P. A. Pieniazek,  A. Prociuk,  Y. M. Rhee,  
 J. Ritchie,  M. A. Rohrdanz,  E. Rosta,  N. J. Russ,  H. F. Schaefer III,  
 M. W. Schmidt,  N. E. Schultz,  S. Sharma,  N. Shenvi,  C. D. Sherrill,  
 A. C. Simmonett,  A. Sodt,  T. Stein,  D. Stuck,  K. S. Thanthiriwatte,  
 V. Vanovschi,  L. Vogt,  Tao Wang,  A. Warshel,  M. A. Watson,  
 C. F. Williams,  Q. Wu,  X. Xu,  Jun Yang,  W. Zhang,  Yan Zhao

   Please cite Q-Chem as follows:
  "Software for the frontiers of quantum chemistry:
   An overview of developments in the Q-Chem 5 package"
   J. Chem. Phys. 155, 084801 (2021)
   https://doi.org/10.1063/5.0055522 (open access)

 Q-Chem 6.2.0 for Intel X86 EM64T Linux

 Parts of Q-Chem use Armadillo 9.900.5 (Nocturnal Misbehaviour).
 http://arma.sourceforge.net/

 Q-Chem begins on Wed Oct 22 10:16:32 2025  

 Host: 
0

     Scratch files written to /scratch/cooksy_group/qchem16304//
 May224 |scratch|qcdevops|jenkins|workspace|build_RNUM -1
 Processing $rem in /opt/qchem/6.2.0/config/preferences:
 Processing $rem in /home/cooksy_group/.qchemrc:
 Symmetry turned off for PCM/SM12/SMD calculation

 Checking the input file for inconsistencies... 	...done.

--------------------------------------------------------------
User input:
--------------------------------------------------------------
$molecule
-2 6
C   -6.0462080   -4.1345771    1.8289728
C   -6.6193208   -2.7881959    2.2577803
N   -5.6341636   -1.8480822    2.1653494
O   -7.7645265   -2.5796802    2.6662710
C   -4.3529210   -2.3974810    1.6126704
C   -5.7799955   -0.5915977    2.9097784
C   -4.5334484   -3.9131097    1.9404462
C   -4.2836754   -2.3125110    0.0482787
O   -3.2605984   -1.7897014    2.1640877
H   -3.9318985   -4.5506959    1.2766656
H   -4.1906894   -4.0625758    2.9774953
H   -6.4461858   -4.9274984    2.4773613
H   -6.3549421   -4.3440184    0.7934198
C   -4.9215926    0.5278507    2.3091485
O   -4.9539297    0.7296398    1.0806886
N   -4.2408924    1.3121376    3.1699977
C   -5.6190752   -0.8192640    4.4200053
H   -4.2784461    1.0846486    4.1571196
C   -3.4105984    2.4460119    2.7741966
C   -1.9912958    2.3620937    3.3679117
O   -1.1068678    3.0516071    2.4486852
C    0.0898820    2.5741449    2.0157567
C    0.7528996    1.3646871    2.6604921
O    0.6153535    3.1878085    1.1054213
C    0.3089971    0.0157459    2.0283267
C    0.7393949   -0.1057883    0.5254055
O   -1.0772501   -0.0844301    2.1455578
C    0.9728376   -1.1751236    2.7652162
C    0.6036169   -2.5923194    2.2680838
O    1.3558218   -3.5237627    2.5782447
O   -0.4885219   -2.7729515    1.5790813
H   -3.9025406    3.3885671    3.0660162
H   -3.3396419    2.4345548    1.6811038
H   -1.6998448    1.3116284    3.4539361
H   -1.9271121    2.8789671    4.3378985
H    0.5404769    1.3292417    3.7397215
H    0.6702315   -1.1274579    3.8267427
H    2.0704363   -1.0999844    2.7364862
O   -3.0596738   -2.2445734   -0.3945929
O   -5.2890761   -2.4071813   -0.6588817
H   -6.8179250   -0.2633312    2.7272897
H   -4.5931258   -1.1279647    4.6711516
H   -6.3115741   -1.6108620    4.7384862
H   -5.8789298    0.0873391    4.9900346
O    1.8661952    0.2517511    0.1594539
O   -0.1538765   -0.6676019   -0.2269842
H    1.8318137    1.5013700    2.5118414
Fe   -1.7798690   -1.3632706    0.9237946
O   -2.6594360    0.4760132   -0.2002904
H   -3.5302820    0.6842038    0.2273140
H   -2.0623559    1.1726895    0.1142016
$end

$rem
BASIS  =  gen
CIS_N_ROOTS  =  100
EXCHANGE  =  CAM-B3LYP
GUI  =  2
JOB_TYPE  =  SP
SCF_CONVERGENCE  =  8
SOLVENT_METHOD  =  PCM
UNRESTRICTED  =  1
MEM_TOTAL  =  30000
BASIS GEN
PURECART 11
$end

$pcm
THEORY  CPCM
$end

$solvent
DIELECTRIC  78.39
$end

$van_der_waals
26   2.44
$end

!----------------------------------------------------------------------
! Basis Set Exchange
! Basis set: aug-cc-pVDZ
!----------------------------------------------------------------------

$basis
H     0
S   4   1.00
1.301000D+01           1.968500D-02
1.962000D+00           1.379770D-01
4.446000D-01           4.781480D-01
1.220000D-01           5.012400D-01
S   1   1.00
1.220000D-01           1.000000D+00
S   1   1.00
0.0297400              1.0000000
P   1   1.00
7.270000D-01           1.0000000
P   1   1.00
0.1410000              1.0000000
****
C     0
S   9   1.00
6.665000D+03           6.920000D-04
1.000000D+03           5.329000D-03
2.280000D+02           2.707700D-02
6.471000D+01           1.017180D-01
2.106000D+01           2.747400D-01
7.495000D+00           4.485640D-01
2.797000D+00           2.850740D-01
5.215000D-01           1.520400D-02
1.596000D-01          -3.191000D-03
S   9   1.00
6.665000D+03          -1.460000D-04
1.000000D+03          -1.154000D-03
2.280000D+02          -5.725000D-03
6.471000D+01          -2.331200D-02
2.106000D+01          -6.395500D-02
7.495000D+00          -1.499810D-01
2.797000D+00          -1.272620D-01
5.215000D-01           5.445290D-01
1.596000D-01           5.804960D-01
S   1   1.00
1.596000D-01           1.000000D+00
S   1   1.00
0.0469000              1.0000000
P   4   1.00
9.439000D+00           3.810900D-02
2.002000D+00           2.094800D-01
5.456000D-01           5.085570D-01
1.517000D-01           4.688420D-01
P   1   1.00
1.517000D-01           1.000000D+00
P   1   1.00
0.0404100              1.0000000
D   1   1.00
5.500000D-01           1.0000000
D   1   1.00
0.1510000              1.0000000
****
N     0
S   9   1.00
9.046000D+03           7.000000D-04
1.357000D+03           5.389000D-03
3.093000D+02           2.740600D-02
8.773000D+01           1.032070D-01
2.856000D+01           2.787230D-01
1.021000D+01           4.485400D-01
3.838000D+00           2.782380D-01
7.466000D-01           1.544000D-02
2.248000D-01          -2.864000D-03
S   9   1.00
9.046000D+03          -1.530000D-04
1.357000D+03          -1.208000D-03
3.093000D+02          -5.992000D-03
8.773000D+01          -2.454400D-02
2.856000D+01          -6.745900D-02
1.021000D+01          -1.580780D-01
3.838000D+00          -1.218310D-01
7.466000D-01           5.490030D-01
2.248000D-01           5.788150D-01
S   1   1.00
2.248000D-01           1.000000D+00
S   1   1.00
0.0612400              1.0000000
P   4   1.00
1.355000D+01           3.991900D-02
2.917000D+00           2.171690D-01
7.973000D-01           5.103190D-01
2.185000D-01           4.622140D-01
P   1   1.00
2.185000D-01           1.000000D+00
P   1   1.00
0.0561100              1.0000000
D   1   1.00
8.170000D-01           1.0000000
D   1   1.00
0.2300000              1.0000000
****
O     0
S   9   1.00
1.172000D+04           7.100000D-04
1.759000D+03           5.470000D-03
4.008000D+02           2.783700D-02
1.137000D+02           1.048000D-01
3.703000D+01           2.830620D-01
1.327000D+01           4.487190D-01
5.025000D+00           2.709520D-01
1.013000D+00           1.545800D-02
3.023000D-01          -2.585000D-03
S   9   1.00
1.172000D+04          -1.600000D-04
1.759000D+03          -1.263000D-03
4.008000D+02          -6.267000D-03
1.137000D+02          -2.571600D-02
3.703000D+01          -7.092400D-02
1.327000D+01          -1.654110D-01
5.025000D+00          -1.169550D-01
1.013000D+00           5.573680D-01
3.023000D-01           5.727590D-01
S   1   1.00
3.023000D-01           1.000000D+00
S   1   1.00
0.0789600              1.0000000
P   4   1.00
1.770000D+01           4.301800D-02
3.854000D+00           2.289130D-01
1.046000D+00           5.087280D-01
2.753000D-01           4.605310D-01
P   1   1.00
2.753000D-01           1.000000D+00
P   1   1.00
0.0685600              1.0000000
D   1   1.00
1.185000D+00           1.0000000
D   1   1.00
0.3320000              1.0000000
****
Fe     0
S   20   1.00
4.316265D+06           8.048803D-06
6.463424D+05           6.258306D-05
1.470897D+05           3.290239D-04
4.166152D+04           1.387355D-03
1.359077D+04           5.023256D-03
4.905750D+03           1.610140D-02
1.912746D+03           4.590034D-02
7.926043D+02           1.136154D-01
3.448065D+02           2.283869D-01
1.558999D+02           3.221159D-01
7.223091D+01           2.383661D-01
3.272506D+01           7.404667D-02
1.566762D+01           9.214197D-02
7.503483D+00           9.339790D-02
3.312223D+00           1.573965D-02
1.558471D+00          -4.186682D-04
6.839140D-01           5.376318D-05
1.467570D-01          -3.816654D-05
7.058300D-02           4.319603D-05
3.144900D-02          -3.401019D-06
S   20   1.00
4.316265D+06          -4.155954D-06
6.463424D+05          -3.231401D-05
1.470897D+05          -1.699525D-04
4.166152D+04          -7.171369D-04
1.359077D+04          -2.603625D-03
4.905750D+03          -8.399109D-03
1.912746D+03          -2.434109D-02
7.926043D+02          -6.251948D-02
3.448065D+02          -1.365929D-01
1.558999D+02          -2.312707D-01
7.223091D+01          -2.383734D-01
3.272506D+01           3.123837D-02
1.566762D+01           5.086818D-01
7.503483D+00           4.987695D-01
3.312223D+00           9.033552D-02
1.558471D+00          -6.005337D-03
6.839140D-01           2.312454D-04
1.467570D-01          -5.643680D-04
7.058300D-02           4.992260D-04
3.144900D-02          -1.015293D-04
S   20   1.00
4.316265D+06           9.532178D-07
6.463424D+05           7.414605D-06
1.470897D+05           3.898393D-05
4.166152D+04           1.647152D-04
1.359077D+04           5.985980D-04
4.905750D+03           1.942390D-03
1.912746D+03           5.687237D-03
7.926043D+02           1.501329D-02
3.448065D+02           3.452455D-02
1.558999D+02           6.495820D-02
7.223091D+01           7.716194D-02
3.272506D+01          -1.873411D-02
1.566762D+01          -3.009185D-01
7.503483D+00          -4.554661D-01
3.312223D+00           1.286463D-01
1.558471D+00           7.183316D-01
6.839140D-01           4.051743D-01
1.467570D-01           2.168227D-02
7.058300D-02          -8.343566D-03
3.144900D-02           3.658979D-03
S   20   1.00
4.316265D+06          -2.063008D-07
6.463424D+05          -1.604169D-06
1.470897D+05          -8.438437D-06
4.166152D+04          -3.563151D-05
1.359077D+04          -1.295998D-04
4.905750D+03          -4.201534D-04
1.912746D+03          -1.231954D-03
7.926043D+02          -3.248922D-03
3.448065D+02          -7.493717D-03
1.558999D+02          -1.410102D-02
7.223091D+01          -1.691600D-02
3.272506D+01           4.218996D-03
1.566762D+01           6.833810D-02
7.503483D+00           1.098201D-01
3.312223D+00          -4.009005D-02
1.558471D+00          -2.174739D-01
6.839140D-01          -2.465135D-01
1.467570D-01           2.731435D-01
7.058300D-02           5.748321D-01
3.144900D-02           3.012713D-01
S   20   1.00
4.316265D+06          -4.009367D-07
6.463424D+05          -3.189255D-06
1.470897D+05          -1.623079D-05
4.166152D+04          -7.157920D-05
1.359077D+04          -2.463958D-04
4.905750D+03          -8.544907D-04
1.912746D+03          -2.307593D-03
7.926043D+02          -6.728292D-03
3.448065D+02          -1.366165D-02
1.558999D+02          -3.062240D-02
7.223091D+01          -2.631137D-02
3.272506D+01          -9.760183D-03
1.566762D+01           1.801906D-01
7.503483D+00           1.529634D-01
3.312223D+00           5.505413D-02
1.558471D+00          -9.551364D-01
6.839140D-01           2.586813D-01
1.467570D-01           1.834049D+00
7.058300D-02          -9.333240D-01
3.144900D-02          -6.981605D-01
S   1   1.00
3.144900D-02           1.000000D+00
S   1   1.00
1.401000D-02           1.000000D+00
P   16   1.00
1.774569D+04           4.100000D-05
4.200721D+03           3.690000D-04
1.364429D+03           2.129000D-03
5.220806D+02           9.369000D-03
2.214595D+02           3.309700D-02
1.009096D+02           9.443100D-02
4.840115D+01           2.080770D-01
2.398536D+01           3.323330D-01
1.218250D+01           3.329870D-01
6.242298D+00           1.568430D-01
3.110944D+00           2.154900D-02
1.509958D+00          -2.095000D-03
7.108450D-01          -1.739000D-03
2.731900D-01          -3.000000D-04
1.042330D-01           2.900000D-05
3.829100D-02          -1.100000D-05
P   16   1.00
1.774569D+04          -1.500000D-05
4.200721D+03          -1.300000D-04
1.364429D+03          -7.510000D-04
5.220806D+02          -3.329000D-03
2.214595D+02          -1.191200D-02
1.009096D+02          -3.493300D-02
4.840115D+01          -7.998900D-02
2.398536D+01          -1.346360D-01
1.218250D+01          -1.385980D-01
6.242298D+00           3.027800D-02
3.110944D+00           3.332160D-01
1.509958D+00           4.561530D-01
7.108450D-01           2.850510D-01
2.731900D-01           4.614400D-02
1.042330D-01          -3.249000D-03
3.829100D-02           1.357000D-03
P   16   1.00
1.774569D+04           5.000000D-06
4.200721D+03           4.200000D-05
1.364429D+03           2.410000D-04
5.220806D+02           1.085000D-03
2.214595D+02           3.831000D-03
1.009096D+02           1.142300D-02
4.840115D+01           2.579200D-02
2.398536D+01           4.481800D-02
1.218250D+01           4.459800D-02
6.242298D+00          -1.117700D-02
3.110944D+00          -1.381340D-01
1.509958D+00          -1.882850D-01
7.108450D-01          -1.073990D-01
2.731900D-01           4.448630D-01
1.042330D-01           6.402390D-01
3.829100D-02           6.445700D-02
P   16   1.00
1.774569D+04           3.000000D-06
4.200721D+03           2.900000D-05
1.364429D+03           1.650000D-04
5.220806D+02           7.340000D-04
2.214595D+02           2.626000D-03
1.009096D+02           7.725000D-03
4.840115D+01           1.773300D-02
2.398536D+01           3.005500D-02
1.218250D+01           3.109400D-02
6.242298D+00          -1.004800D-02
3.110944D+00          -8.830600D-02
1.509958D+00          -1.298240D-01
7.108450D-01          -7.693700D-02
2.731900D-01           2.126610D-01
1.042330D-01           5.730610D-01
3.829100D-02           3.696510D-01
P   1   1.00
3.829100D-02           1.000000D+00
P   1   1.00
1.407000D-02           1.000000D+00
D   8   1.00
1.133440D+02           3.530000D-03
3.364140D+01           2.578400D-02
1.233100D+01           9.911900D-02
4.994780D+00           2.390730D-01
2.072800D+00           3.571990D-01
8.307530D-01           3.621880D-01
3.091780D-01           2.364610D-01
1.001300D-01           6.011800D-02
D   8   1.00
1.133440D+02          -3.890000D-03
3.364140D+01          -2.844200D-02
1.233100D+01          -1.124290D-01
4.994780D+00          -2.742570D-01
2.072800D+00          -3.155460D-01
8.307530D-01           5.710900D-02
3.091780D-01           5.636040D-01
1.001300D-01           3.846370D-01
D   1   1.00
1.001300D-01           1.000000D+00
D   1   1.00
3.243000D-02           1.000000D+00
F   2   1.00
3.224300D+00           4.222490D-01
7.758000D-01           7.714680D-01
F   1   1.00
2.749000D-01           1.000000D+00
****
$end


--------------------------------------------------------------
 ----------------------------------------------------------------
             Standard Nuclear Orientation (Angstroms)
    I     Atom           X                Y                Z
 ----------------------------------------------------------------
    1      C      -6.0462080000    -4.1345771000     1.8289728000
    2      C      -6.6193208000    -2.7881959000     2.2577803000
    3      N      -5.6341636000    -1.8480822000     2.1653494000
    4      O      -7.7645265000    -2.5796802000     2.6662710000
    5      C      -4.3529210000    -2.3974810000     1.6126704000
    6      C      -5.7799955000    -0.5915977000     2.9097784000
    7      C      -4.5334484000    -3.9131097000     1.9404462000
    8      C      -4.2836754000    -2.3125110000     0.0482787000
    9      O      -3.2605984000    -1.7897014000     2.1640877000
   10      H      -3.9318985000    -4.5506959000     1.2766656000
   11      H      -4.1906894000    -4.0625758000     2.9774953000
   12      H      -6.4461858000    -4.9274984000     2.4773613000
   13      H      -6.3549421000    -4.3440184000     0.7934198000
   14      C      -4.9215926000     0.5278507000     2.3091485000
   15      O      -4.9539297000     0.7296398000     1.0806886000
   16      N      -4.2408924000     1.3121376000     3.1699977000
   17      C      -5.6190752000    -0.8192640000     4.4200053000
   18      H      -4.2784461000     1.0846486000     4.1571196000
   19      C      -3.4105984000     2.4460119000     2.7741966000
   20      C      -1.9912958000     2.3620937000     3.3679117000
   21      O      -1.1068678000     3.0516071000     2.4486852000
   22      C       0.0898820000     2.5741449000     2.0157567000
   23      C       0.7528996000     1.3646871000     2.6604921000
   24      O       0.6153535000     3.1878085000     1.1054213000
   25      C       0.3089971000     0.0157459000     2.0283267000
   26      C       0.7393949000    -0.1057883000     0.5254055000
   27      O      -1.0772501000    -0.0844301000     2.1455578000
   28      C       0.9728376000    -1.1751236000     2.7652162000
   29      C       0.6036169000    -2.5923194000     2.2680838000
   30      O       1.3558218000    -3.5237627000     2.5782447000
   31      O      -0.4885219000    -2.7729515000     1.5790813000
   32      H      -3.9025406000     3.3885671000     3.0660162000
   33      H      -3.3396419000     2.4345548000     1.6811038000
   34      H      -1.6998448000     1.3116284000     3.4539361000
   35      H      -1.9271121000     2.8789671000     4.3378985000
   36      H       0.5404769000     1.3292417000     3.7397215000
   37      H       0.6702315000    -1.1274579000     3.8267427000
   38      H       2.0704363000    -1.0999844000     2.7364862000
   39      O      -3.0596738000    -2.2445734000    -0.3945929000
   40      O      -5.2890761000    -2.4071813000    -0.6588817000
   41      H      -6.8179250000    -0.2633312000     2.7272897000
   42      H      -4.5931258000    -1.1279647000     4.6711516000
   43      H      -6.3115741000    -1.6108620000     4.7384862000
   44      H      -5.8789298000     0.0873391000     4.9900346000
   45      O       1.8661952000     0.2517511000     0.1594539000
   46      O      -0.1538765000    -0.6676019000    -0.2269842000
   47      H       1.8318137000     1.5013700000     2.5118414000
   48      Fe     -1.7798690000    -1.3632706000     0.9237946000
   49      O      -2.6594360000     0.4760132000    -0.2002904000
   50      H      -3.5302820000     0.6842038000     0.2273140000
   51      H      -2.0623559000     1.1726895000     0.1142016000
 ----------------------------------------------------------------
 Nuclear Repulsion Energy =        4477.44814532 hartrees
 There are      133 alpha and      128 beta electrons
 Requested basis set is non-standard
 There are 393 shells and 943 basis functions

 Total QAlloc Memory Limit  30000 MB
 Mega-Array Size       188 MB
 MEM_STATIC part       192 MB


 Q-Chem warning in module libscrf/libscrf/pcm/PCM_CLASS/read_pcm_solvent.C, line 176:

 Using eps_inf = 1.78 (water) for excited-state calculations

 Using C-PCM dielectric factor f(eps) = (eps-1)/eps = 0.987243
 Static dielectric constant eps = 78.39
 No default van der Waals radius is available for Z = 26
	Found R = 2.4400 A in the $van_der_waals section
 Discretize the solute cavity surface with Lebedev spheres
	Using 110 Lebedev grid points for each H atom
	Using 194 Lebedev grid points for other atoms
	Atomic van der Waals radii (Bondi set) will be scaled by 1.20
 Using smooth SwiG surface discretization
 Remove points where switching function is < 1.0e-08
 Keep 3051 surface tesserae and discard 5247 interior tesserae
 Molecular Surface Area = 403.994 Angst**2

 A cutoff of  1.0D-12 yielded  72063 shell pairs
 There are    401417 function pairs (    462214 Cartesian)
 Smallest overlap matrix eigenvalue = 1.22E-06

 Scale SEOQF with 1.000000e-02/1.000000e-01/1.000000e-01

 Standard Electronic Orientation quadrupole field applied
 Nucleus-field energy     =    -0.0000000289 hartrees
 ================ Generating on-the-fly SAD Guess ================
 Attempting to make child job directory: /scratch/cooksy_group/qchem16304//Frg1/
 Attempting to make child job directory: /scratch/cooksy_group/qchem16304//Frg2/
 Attempting to make child job directory: /scratch/cooksy_group/qchem16304//Frg3/
 Attempting to make child job directory: /scratch/cooksy_group/qchem16304//Frg4/
 Attempting to make child job directory: /scratch/cooksy_group/qchem16304//Frg5/
 Creating input file /scratch/cooksy_group/qchem16304/Frg1.input
 using default PutDataFrgm: nothing
 calling putenv with: QCSCRATCH=/scratch/cooksy_group/qchem16304/ 
 Spawning Job For Fragment 0
 Done Job For Fragment 0
 calling putenv with: QCSCRATCH=/scratch/cooksy_group 
 calling putenv with: QCTHREADS=16 
 Creating input file /scratch/cooksy_group/qchem16304/Frg2.input
 using default PutDataFrgm: nothing
 calling putenv with: QCSCRATCH=/scratch/cooksy_group/qchem16304/ 
 Spawning Job For Fragment 1
 Done Job For Fragment 1
 calling putenv with: QCSCRATCH=/scratch/cooksy_group 
 calling putenv with: QCTHREADS=16 
 Creating input file /scratch/cooksy_group/qchem16304/Frg3.input
 using default PutDataFrgm: nothing
 calling putenv with: QCSCRATCH=/scratch/cooksy_group/qchem16304/ 
 Spawning Job For Fragment 2
 Done Job For Fragment 2
 calling putenv with: QCSCRATCH=/scratch/cooksy_group 
 calling putenv with: QCTHREADS=16 
 Creating input file /scratch/cooksy_group/qchem16304/Frg4.input
 using default PutDataFrgm: nothing
 calling putenv with: QCSCRATCH=/scratch/cooksy_group/qchem16304/ 
 Spawning Job For Fragment 3
 Done Job For Fragment 3
 calling putenv with: QCSCRATCH=/scratch/cooksy_group 
 calling putenv with: QCTHREADS=16 
 Creating input file /scratch/cooksy_group/qchem16304/Frg5.input
 using default PutDataFrgm: nothing
 calling putenv with: QCSCRATCH=/scratch/cooksy_group/qchem16304/ 
 Spawning Job For Fragment 4
 Done Job For Fragment 4
 calling putenv with: QCSCRATCH=/scratch/cooksy_group 
 calling putenv with: QCTHREADS=16 
 Time for running child jobs:  CPU 0.02 s  wall 202.58 s
 ============= Method Specific SAD Guess Constructed =============
 Guess from on-the-fly superposition of atomic densities
 Warning: Energy on first SCF cycle will be non-variational

 -----------------------------------------------------------------------
  General SCF calculation program by
  Eric Jon Sundstrom, Paul Horn, Yuezhi Mao, Dmitri Zuev, Alec White,
  David Stuck, Shaama M.S., Shane Yost, Joonho Lee, David Small,
  Daniel Levine, Susi Lehtola, Hugh Burton, Evgeny Epifanovsky,
  Bang C. Huynh
 -----------------------------------------------------------------------
 Exchange:     0.1900 Hartree-Fock + 0.3500 B88 + 0.4600 muB88 + LR-HF
 Correlation:  0.1900 VWN5 + 0.8100 LYP
 Using SG-1 standard quadrature grid
 using 16 threads for integral computing
 -------------------------------------------------------
 OpenMP Integral computing Module                
 Release: version 1.0, May 2013, Q-Chem Inc. Pittsburgh 
 -------------------------------------------------------
 C-PCM solvent model [f = (eps-1)/eps], solve by matrix inversion
 A unrestricted SCF calculation will be
 performed using DIIS
 SCF converges when DIIS error is below 1.0e-08
 ---------------------------------------
  Cycle       Energy         DIIS error
 ---------------------------------------
    1   -2987.8071764821      1.16e-02  
    2   -2971.4717662740      1.66e-03  
    3   -2969.4462558226      3.47e-03  
    4   -2972.2184258648      1.04e-03  
    5   -2972.5015771926      1.51e-04  
    6   -2972.5105610721      1.08e-04  
    7   -2972.5153097601      3.53e-05  
    8   -2972.5160706485      2.04e-05  
    9   -2972.5163197351      8.33e-06  
   10   -2972.5163725667      3.38e-06  
   11   -2972.5163844428      1.81e-06  
   12   -2972.5163880299      8.38e-07  
   13   -2972.5163890373      4.10e-07  
   14   -2972.5163893121      2.21e-07  
   15   -2972.5163893711      1.10e-07  
   16   -2972.5163893847      5.59e-08  
   17   -2972.5163893873      2.54e-08  
   18   -2972.5163893870      1.02e-08  
   19   -2972.5163893862      5.85e-09  Convergence criterion met
 ---------------------------------------
 SCF time:   CPU 263319.77s  wall 18331.00s 
<S^2> =          8.756695372

************** Final PCM Free Energy Summary **************
 G_electrostatic  =      -0.30177254 hartree =    -189.36512488 kcal/mol
 G_cavitation     =       0.00000000 hartree =       0.00000000 kcal/mol
 G_dispersion     =       0.00000000 hartree =       0.00000000 kcal/mol
 G_repulsion      =       0.00000000 hartree =       0.00000000 kcal/mol
 --------------------------------------------------
 Non-electrostatic Free Energy =       0.00000000 hartree =       0.00000000 kcal/mol
 Total                         =      -0.30177254 hartree =    -189.36512488 kcal/mol
 --------------------------------------------------
 SCF Energy (H0 + V/2)                       =   -2972.51638939 
 Solute Internal Energy (H0)                 =   -2972.21461685 
 Total Free Energy (H0 + V/2 + non-elec)     =   -2972.51638939 hartree
                                             = -1865282.19614756 kcal/mol
***********************************************************

 SCF   energy = -2972.51638939
 Total energy = -2972.51638939
 MAX_CIS_SUBSPACE fits in available memory
 Direct TDDFT/TDA calculation will be performed
 Exchange:     0.1900 Hartree-Fock + 0.3500 B88 + 0.4600 muB88 + LR-HF
 Correlation:  0.1900 VWN5 + 0.8100 LYP
 Using SG-1 standard quadrature grid
 Adding PCM contribution to the XC response (LR-PCM)
 Optical dielectric constant (eps_inf) =  1.78
 CIS energy converged when residual is below 10e- 6
 ---------------------------------------------------
 Iter    Rts Conv    Rts Left    Ttl Dev     Max Dev
 ---------------------------------------------------
   1         0         100      0.008317    0.000403
   2         0         100      0.006906    0.000191
   3         0         100      0.005548    0.000154
   4         0         100      0.004485    0.000144
   5        13          87      0.003056    0.000107
   6        28          72      0.001379    0.000045
   7        39          61      0.000467    0.000019
   8        52          48      0.000149    0.000006
   9        85          15      0.000048    0.000002
  10       100           0      0.000024    0.000001    Roots Converged
 ---------------------------------------------------
 
 ---------------------------------------------------
         TDDFT/TDA Excitation Energies              
 ---------------------------------------------------

 Excited state   1: excitation energy (eV) =       3.0897
 Total energy for state   1:                 -2972.40284346 au
    <S**2>     :  8.7871
    Trans. Mom.: -0.2026 X  -0.1722 Y   0.0263 Z
    Strength   :     0.0054036504
    D(  126) --> S(    1) amplitude = -0.1841 beta
    D(  127) --> S(    1) amplitude =  0.6918 beta
    D(  127) --> S(    3) amplitude =  0.2853 beta
    D(  128) --> S(    1) amplitude = -0.4527 beta

 Excited state   2: excitation energy (eV) =       3.2044
 Total energy for state   2:                 -2972.39863139 au
    <S**2>     :  8.7808
    Trans. Mom.:  0.6612 X   0.3313 Y   0.0290 Z
    Strength   :     0.0430009528
    D(  124) --> S(    1) amplitude = -0.1607 beta
    D(  127) --> S(    2) amplitude =  0.5456 beta
    D(  127) --> S(    3) amplitude =  0.3181 beta
    D(  128) --> S(    1) amplitude =  0.5589 beta
    D(  128) --> S(    2) amplitude = -0.1884 beta
    D(  128) --> S(    3) amplitude = -0.1763 beta

 Excited state   3: excitation energy (eV) =       3.2385
 Total energy for state   3:                 -2972.39737566 au
    <S**2>     :  8.7807
    Trans. Mom.:  0.1325 X  -0.0222 Y  -0.0488 Z
    Strength   :     0.0016202860
    D(  123) --> S(    1) amplitude =  0.1764 beta
    D(  127) --> S(    1) amplitude =  0.4620 beta
    D(  127) --> S(    3) amplitude = -0.3077 beta
    D(  128) --> S(    1) amplitude =  0.3201 beta
    D(  128) --> S(    2) amplitude =  0.3708 beta
    D(  128) --> S(    3) amplitude =  0.4838 beta

 Excited state   4: excitation energy (eV) =       3.2724
 Total energy for state   4:                 -2972.39613066 au
    <S**2>     :  8.7772
    Trans. Mom.: -0.2231 X  -0.1774 Y  -0.0989 Z
    Strength   :     0.0072957109
    D(  120) --> S(    2) amplitude = -0.1508 beta
    D(  123) --> S(    3) amplitude =  0.1809 beta
    D(  124) --> S(    2) amplitude = -0.1583 beta
    D(  127) --> S(    3) amplitude =  0.6412 beta
    D(  128) --> S(    2) amplitude =  0.5830 beta

 Excited state   5: excitation energy (eV) =       3.3429
 Total energy for state   5:                 -2972.39354184 au
    <S**2>     :  8.7824
    Trans. Mom.:  0.1099 X   0.2054 Y   0.0817 Z
    Strength   :     0.0049934150
    D(  123) --> S(    2) amplitude =  0.2196 beta
    D(  124) --> S(    2) amplitude = -0.1917 beta
    D(  126) --> S(    2) amplitude = -0.2017 beta
    D(  127) --> S(    2) amplitude =  0.5348 beta
    D(  127) --> S(    3) amplitude = -0.2852 beta
    D(  128) --> S(    1) amplitude = -0.3046 beta
    D(  128) --> S(    2) amplitude =  0.4280 beta
    D(  128) --> S(    3) amplitude = -0.2215 beta

 Excited state   6: excitation energy (eV) =       3.3904
 Total energy for state   6:                 -2972.39179445 au
    <S**2>     :  8.7816
    Trans. Mom.: -0.3002 X  -0.0062 Y   0.2024 Z
    Strength   :     0.0108923840
    D(  120) --> S(    3) amplitude = -0.1688 beta
    D(  124) --> S(    3) amplitude = -0.2190 beta
    D(  126) --> S(    2) amplitude = -0.2459 beta
    D(  127) --> S(    1) amplitude = -0.2162 beta
    D(  127) --> S(    2) amplitude =  0.2528 beta
    D(  128) --> S(    1) amplitude = -0.2322 beta
    D(  128) --> S(    2) amplitude = -0.2828 beta
    D(  128) --> S(    3) amplitude =  0.6557 beta

 Excited state   7: excitation energy (eV) =       3.4715
 Total energy for state   7:                 -2972.38881286 au
    <S**2>     :  8.7784
    Trans. Mom.: -0.0801 X   0.0455 Y  -0.0327 Z
    Strength   :     0.0008124785
    D(  111) --> S(    2) amplitude = -0.1548 beta
    D(  114) --> S(    2) amplitude = -0.1508 beta
    D(  123) --> S(    1) amplitude = -0.1701 beta
    D(  123) --> S(    2) amplitude =  0.1849 beta
    D(  125) --> S(    2) amplitude =  0.2110 beta
    D(  126) --> S(    1) amplitude =  0.4826 beta
    D(  126) --> S(    2) amplitude = -0.4493 beta
    D(  126) --> S(    3) amplitude =  0.1589 beta
    D(  127) --> S(    1) amplitude =  0.2095 beta
    D(  127) --> S(    2) amplitude = -0.3007 beta

 Excited state   8: excitation energy (eV) =       3.5874
 Total energy for state   8:                 -2972.38455400 au
    <S**2>     :  8.7865
    Trans. Mom.: -0.0939 X   0.0970 Y   0.1021 Z
    Strength   :     0.0025187158
    D(  123) --> S(    1) amplitude = -0.1881 beta
    D(  123) --> S(    2) amplitude = -0.1998 beta
    D(  125) --> S(    2) amplitude = -0.1570 beta
    D(  126) --> S(    1) amplitude =  0.5854 beta
    D(  126) --> S(    2) amplitude =  0.4932 beta
    D(  127) --> S(    1) amplitude =  0.1640 beta
    D(  127) --> S(    2) amplitude =  0.2051 beta

 Excited state   9: excitation energy (eV) =       3.6488
 Total energy for state   9:                 -2972.38229859 au
    <S**2>     :  8.7793
    Trans. Mom.:  0.0465 X   0.0643 Y   0.0228 Z
    Strength   :     0.0006099483
    D(  110) --> S(    1) amplitude =  0.1586 beta
    D(  111) --> S(    3) amplitude =  0.1772 beta
    D(  123) --> S(    3) amplitude = -0.2366 beta
    D(  125) --> S(    1) amplitude = -0.3044 beta
    D(  126) --> S(    1) amplitude = -0.2730 beta
    D(  126) --> S(    3) amplitude =  0.6936 beta
    D(  127) --> S(    3) amplitude =  0.2180 beta

 Excited state  10: excitation energy (eV) =       3.7942
 Total energy for state  10:                 -2972.37695574 au
    <S**2>     :  8.7835
    Trans. Mom.: -0.2522 X   0.0669 Y   0.0472 Z
    Strength   :     0.0065345804
    D(  110) --> S(    1) amplitude = -0.2585 beta
    D(  119) --> S(    1) amplitude =  0.1780 beta
    D(  120) --> S(    1) amplitude =  0.1815 beta
    D(  122) --> S(    1) amplitude = -0.2427 beta
    D(  123) --> S(    1) amplitude =  0.1873 beta
    D(  123) --> S(    3) amplitude = -0.1668 beta
    D(  125) --> S(    1) amplitude =  0.6594 beta
    D(  125) --> S(    3) amplitude = -0.2635 beta
    D(  126) --> S(    3) amplitude =  0.2734 beta

 Excited state  11: excitation energy (eV) =       3.9348
 Total energy for state  11:                 -2972.37178905 au
    <S**2>     :  8.7796
    Trans. Mom.: -0.2086 X  -0.0460 Y   0.1870 Z
    Strength   :     0.0077697994
    D(  110) --> S(    2) amplitude = -0.2595 beta
    D(  110) --> S(    3) amplitude = -0.1866 beta
    D(  120) --> S(    2) amplitude =  0.1787 beta
    D(  125) --> S(    2) amplitude =  0.5765 beta
    D(  125) --> S(    3) amplitude =  0.4188 beta
    D(  126) --> S(    2) amplitude =  0.3443 beta
    D(  126) --> S(    3) amplitude =  0.2122 beta

 Excited state  12: excitation energy (eV) =       3.9959
 Total energy for state  12:                 -2972.36954195 au
    <S**2>     :  8.7891
    Trans. Mom.:  0.0794 X   0.0007 Y  -0.0463 Z
    Strength   :     0.0008277551
    D(  110) --> S(    2) amplitude =  0.1551 beta
    D(  110) --> S(    3) amplitude = -0.2048 beta
    D(  120) --> S(    3) amplitude =  0.1618 beta
    D(  122) --> S(    3) amplitude = -0.1723 beta
    D(  125) --> S(    1) amplitude =  0.1746 beta
    D(  125) --> S(    2) amplitude = -0.3731 beta
    D(  125) --> S(    3) amplitude =  0.5115 beta
    D(  126) --> S(    1) amplitude =  0.1806 beta
    D(  126) --> S(    2) amplitude = -0.2475 beta
    D(  126) --> S(    3) amplitude =  0.2691 beta
    D(  127) --> S(    4) amplitude = -0.3224 beta

 Excited state  13: excitation energy (eV) =       4.0299
 Total energy for state  13:                 -2972.36829335 au
    <S**2>     :  8.7724
    Trans. Mom.:  0.0663 X  -0.1546 Y   0.0614 Z
    Strength   :     0.0031640134
    D(  123) --> S(    4) amplitude =  0.1573 beta
    D(  125) --> S(    2) amplitude = -0.1597 beta
    D(  125) --> S(    3) amplitude =  0.2202 beta
    D(  126) --> S(    4) amplitude = -0.1875 beta
    D(  127) --> S(    4) amplitude =  0.7023 beta
    D(  127) --> V(    1) amplitude =  0.1550 beta
    D(  128) --> S(    4) amplitude = -0.3988 beta

 Excited state  14: excitation energy (eV) =       4.1565
 Total energy for state  14:                 -2972.36364183 au
    <S**2>     :  8.7721
    Trans. Mom.:  0.2734 X  -0.0825 Y   0.0804 Z
    Strength   :     0.0089622059
    D(  120) --> S(    4) amplitude = -0.1993 beta
    D(  123) --> S(    4) amplitude =  0.1711 beta
    D(  124) --> S(    4) amplitude = -0.2636 beta
    D(  127) --> S(    4) amplitude =  0.3718 beta
    D(  128) --> S(    4) amplitude =  0.7489 beta
    D(  128) --> V(    1) amplitude = -0.1750 beta

 Excited state  15: excitation energy (eV) =       4.2950
 Total energy for state  15:                 -2972.35855054 au
    <S**2>     :  8.7945
    Trans. Mom.:  0.0327 X   0.1323 Y  -0.0621 Z
    Strength   :     0.0023602574
    D(  110) --> S(    1) amplitude =  0.2722 beta
    D(  113) --> S(    1) amplitude =  0.2514 beta
    D(  114) --> S(    1) amplitude =  0.1587 beta
    D(  115) --> S(    1) amplitude =  0.2578 beta
    D(  116) --> S(    1) amplitude = -0.1639 beta
    D(  117) --> S(    1) amplitude =  0.1736 beta
    D(  118) --> S(    1) amplitude =  0.2530 beta
    D(  119) --> S(    1) amplitude =  0.4837 beta
    D(  121) --> S(    1) amplitude =  0.1796 beta
    D(  122) --> S(    1) amplitude = -0.4671 beta

 Excited state  16: excitation energy (eV) =       4.3988
 Total energy for state  16:                 -2972.35473709 au
    <S**2>     :  8.7811
    Trans. Mom.:  0.0464 X  -0.0603 Y   0.0883 Z
    Strength   :     0.0014635161
    D(  110) --> S(    2) amplitude =  0.2724 beta
    D(  110) --> S(    3) amplitude =  0.2082 beta
    D(  117) --> S(    2) amplitude =  0.1549 beta
    D(  118) --> S(    2) amplitude =  0.2380 beta
    D(  118) --> S(    3) amplitude =  0.1920 beta
    D(  119) --> S(    2) amplitude =  0.4569 beta
    D(  119) --> S(    3) amplitude =  0.3588 beta
    D(  122) --> S(    2) amplitude = -0.3169 beta
    D(  122) --> S(    3) amplitude = -0.2677 beta

 Excited state  17: excitation energy (eV) =       4.4628
 Total energy for state  17:                 -2972.35238567 au
    <S**2>     :  8.7847
    Trans. Mom.:  0.0906 X  -0.1148 Y   0.0516 Z
    Strength   :     0.0026288378
    D(  110) --> S(    2) amplitude = -0.1668 beta
    D(  110) --> S(    3) amplitude =  0.1746 beta
    D(  113) --> S(    2) amplitude = -0.1509 beta
    D(  113) --> S(    3) amplitude =  0.1945 beta
    D(  115) --> S(    3) amplitude =  0.2048 beta
    D(  118) --> S(    2) amplitude = -0.1764 beta
    D(  118) --> S(    3) amplitude =  0.1899 beta
    D(  119) --> S(    2) amplitude = -0.3324 beta
    D(  119) --> S(    3) amplitude =  0.3478 beta
    D(  122) --> S(    1) amplitude = -0.1708 beta
    D(  122) --> S(    2) amplitude =  0.2717 beta
    D(  122) --> S(    3) amplitude = -0.3460 beta

 Excited state  18: excitation energy (eV) =       4.5492
 Total energy for state  18:                 -2972.34921006 au
    <S**2>     :  8.7838
    Trans. Mom.: -0.0069 X   0.0819 Y  -0.0299 Z
    Strength   :     0.0008525967
    D(  122) --> S(    1) amplitude = -0.1856 beta
    D(  126) --> V(    1) amplitude = -0.1516 beta
    D(  127) --> S(    4) amplitude = -0.2347 beta
    D(  127) --> V(    1) amplitude =  0.6544 beta
    D(  127) --> V(    3) amplitude = -0.2394 beta
    D(  128) --> V(    1) amplitude = -0.3488 beta

 Excited state  19: excitation energy (eV) =       4.5854
 Total energy for state  19:                 -2972.34787785 au
    <S**2>     :  8.8177
    Trans. Mom.: -0.0451 X  -0.1963 Y   0.1543 Z
    Strength   :     0.0072296333
    D(  110) --> S(    1) amplitude =  0.1585 beta
    D(  118) --> S(    1) amplitude =  0.2902 beta
    D(  119) --> S(    1) amplitude =  0.4597 beta
    D(  119) --> S(    3) amplitude =  0.1586 beta
    D(  121) --> S(    1) amplitude = -0.1782 beta
    D(  122) --> S(    1) amplitude =  0.5591 beta
    D(  124) --> S(    1) amplitude = -0.2416 beta
    D(  127) --> V(    1) amplitude =  0.2205 beta

 Excited state  20: excitation energy (eV) =       4.6245
 Total energy for state  20:                 -2972.34644279 au
    <S**2>     :  8.8024
    Trans. Mom.: -0.2275 X   0.0432 Y  -0.0104 Z
    Strength   :     0.0060895313
    D(  110) --> S(    1) amplitude =  0.3311 beta
    D(  111) --> S(    1) amplitude =  0.2340 beta
    D(  112) --> S(    1) amplitude = -0.1596 beta
    D(  113) --> S(    1) amplitude = -0.2109 beta
    D(  115) --> S(    1) amplitude = -0.3494 beta
    D(  119) --> S(    1) amplitude =  0.2335 beta
    D(  120) --> S(    1) amplitude =  0.1584 beta
    D(  123) --> S(    1) amplitude = -0.2859 beta
    D(  124) --> S(    1) amplitude =  0.3947 beta
    D(  125) --> S(    1) amplitude =  0.1789 beta
    D(  127) --> V(    1) amplitude = -0.1793 beta
    D(  128) --> S(    1) amplitude =  0.1637 beta

 Excited state  21: excitation energy (eV) =       4.6536
 Total energy for state  21:                 -2972.34537197 au
    <S**2>     :  8.7917
    Trans. Mom.: -0.1336 X  -0.1212 Y  -0.2793 Z
    Strength   :     0.0126067236
    D(  119) --> S(    3) amplitude = -0.2160 beta
    D(  122) --> S(    2) amplitude = -0.3146 beta
    D(  122) --> S(    3) amplitude = -0.2727 beta
    D(  123) --> S(    4) amplitude = -0.1908 beta
    D(  124) --> S(    2) amplitude =  0.1632 beta
    D(  124) --> S(    3) amplitude =  0.2188 beta
    D(  126) --> S(    4) amplitude =  0.5182 beta
    D(  127) --> S(    4) amplitude =  0.1750 beta
    D(  128) --> V(    1) amplitude = -0.1797 beta

 Excited state  22: excitation energy (eV) =       4.6671
 Total energy for state  22:                 -2972.34487708 au
    <S**2>     :  8.7946
    Trans. Mom.: -0.2402 X  -0.0781 Y  -0.1393 Z
    Strength   :     0.0095143730
    D(  110) --> S(    3) amplitude =  0.1645 beta
    D(  115) --> S(    1) amplitude =  0.1622 beta
    D(  119) --> S(    2) amplitude =  0.2818 beta
    D(  119) --> S(    3) amplitude =  0.2086 beta
    D(  122) --> S(    2) amplitude =  0.4155 beta
    D(  122) --> S(    3) amplitude =  0.2207 beta
    D(  128) --> V(    1) amplitude = -0.2881 beta

 Excited state  23: excitation energy (eV) =       4.6767
 Total energy for state  23:                 -2972.34452277 au
    <S**2>     :  8.7865
    Trans. Mom.: -0.1522 X   0.0305 Y  -0.1150 Z
    Strength   :     0.0042752140
    D(  119) --> S(    2) amplitude =  0.2060 beta
    D(  122) --> S(    3) amplitude =  0.2507 beta
    D(  124) --> S(    1) amplitude =  0.1990 beta
    D(  124) --> S(    3) amplitude = -0.2088 beta
    D(  126) --> S(    4) amplitude =  0.4454 beta
    D(  127) --> V(    1) amplitude =  0.1738 beta
    D(  128) --> V(    1) amplitude =  0.3859 beta

 Excited state  24: excitation energy (eV) =       4.7119
 Total energy for state  24:                 -2972.34322917 au
    <S**2>     :  8.7990
    Trans. Mom.: -0.0945 X  -0.0351 Y  -0.0773 Z
    Strength   :     0.0018615182
    D(  110) --> S(    3) amplitude =  0.2356 beta
    D(  111) --> S(    3) amplitude =  0.2225 beta
    D(  113) --> S(    3) amplitude = -0.1967 beta
    D(  115) --> S(    3) amplitude = -0.2538 beta
    D(  119) --> S(    3) amplitude =  0.2028 beta
    D(  123) --> S(    3) amplitude = -0.1921 beta
    D(  124) --> S(    3) amplitude =  0.2960 beta
    D(  127) --> V(    1) amplitude =  0.2104 beta
    D(  128) --> V(    1) amplitude =  0.4538 beta
    D(  128) --> V(    3) amplitude = -0.1658 beta

 Excited state  25: excitation energy (eV) =       4.7255
 Total energy for state  25:                 -2972.34273105 au
    <S**2>     :  8.7857
    Trans. Mom.:  0.0391 X   0.0834 Y  -0.0254 Z
    Strength   :     0.0010573580
    D(  111) --> S(    2) amplitude =  0.2159 beta
    D(  115) --> S(    2) amplitude = -0.1618 beta
    D(  117) --> S(    2) amplitude = -0.1510 beta
    D(  118) --> S(    2) amplitude = -0.1562 beta
    D(  118) --> S(    3) amplitude =  0.1559 beta
    D(  119) --> S(    2) amplitude = -0.1531 beta
    D(  119) --> S(    3) amplitude =  0.2192 beta
    D(  121) --> S(    2) amplitude =  0.1668 beta
    D(  121) --> S(    3) amplitude = -0.1551 beta
    D(  122) --> S(    2) amplitude = -0.3989 beta
    D(  122) --> S(    3) amplitude =  0.4012 beta
    D(  124) --> S(    2) amplitude =  0.4131 beta
    D(  124) --> S(    3) amplitude = -0.2416 beta

 Excited state  26: excitation energy (eV) =       4.7539
 Total energy for state  26:                 -2972.34168572 au
    <S**2>     :  8.7852
    Trans. Mom.:  0.0592 X   0.0006 Y  -0.0217 Z
    Strength   :     0.0004631014
    D(  110) --> S(    2) amplitude = -0.2548 beta
    D(  110) --> S(    3) amplitude =  0.1548 beta
    D(  111) --> S(    2) amplitude = -0.2213 beta
    D(  112) --> S(    2) amplitude =  0.1527 beta
    D(  113) --> S(    2) amplitude =  0.1546 beta
    D(  115) --> S(    2) amplitude =  0.2326 beta
    D(  118) --> S(    3) amplitude =  0.1800 beta
    D(  119) --> S(    2) amplitude = -0.2298 beta
    D(  119) --> S(    3) amplitude =  0.2985 beta
    D(  120) --> S(    2) amplitude = -0.1871 beta
    D(  122) --> S(    3) amplitude =  0.3066 beta
    D(  123) --> S(    2) amplitude =  0.2010 beta
    D(  124) --> S(    2) amplitude = -0.2815 beta
    D(  125) --> S(    2) amplitude = -0.1788 beta
    D(  125) --> S(    4) amplitude = -0.1631 beta

 Excited state  27: excitation energy (eV) =       4.8552
 Total energy for state  27:                 -2972.33796246 au
    <S**2>     :  8.8677
    Trans. Mom.:  0.2857 X  -0.0571 Y   0.1568 Z
    Strength   :     0.0130209695
    D(  111) --> S(    1) amplitude =  0.1537 beta
    D(  112) --> S(    1) amplitude = -0.1801 beta
    D(  113) --> S(    1) amplitude =  0.2751 beta
    D(  115) --> S(    1) amplitude =  0.3683 beta
    D(  116) --> S(    1) amplitude =  0.1697 beta
    D(  117) --> S(    1) amplitude = -0.2358 beta
    D(  120) --> S(    1) amplitude =  0.1904 beta
    D(  121) --> S(    1) amplitude = -0.3294 beta
    D(  122) --> S(    1) amplitude =  0.1593 beta
    D(  123) --> S(    1) amplitude =  0.2052 beta
    D(  124) --> S(    1) amplitude =  0.2249 beta
    D(  125) --> S(    4) amplitude =  0.3152 beta
    D(  128) --> S(    1) amplitude =  0.1594 beta

 Excited state  28: excitation energy (eV) =       4.9084
 Total energy for state  28:                 -2972.33600854 au
    <S**2>     :  8.7804
    Trans. Mom.:  0.5689 X   0.1846 Y  -0.2785 Z
    Strength   :     0.0523511405
    D(  110) --> S(    4) amplitude = -0.2091 beta
    D(  116) --> S(    1) amplitude = -0.1573 beta
    D(  117) --> S(    1) amplitude =  0.1619 beta
    D(  119) --> S(    4) amplitude =  0.2182 beta
    D(  120) --> S(    4) amplitude =  0.1681 beta
    D(  122) --> S(    4) amplitude = -0.2652 beta
    D(  125) --> S(    4) amplitude =  0.5991 beta
    D(  126) --> S(    4) amplitude =  0.3916 beta

 Excited state  29: excitation energy (eV) =       4.9208
 Total energy for state  29:                 -2972.33555424 au
    <S**2>     :  8.8655
    Trans. Mom.:  0.3787 X   0.0740 Y   0.0642 Z
    Strength   :     0.0184455167
    D(  115) --> S(    1) amplitude =  0.1577 beta
    D(  116) --> S(    1) amplitude =  0.4962 beta
    D(  117) --> S(    1) amplitude = -0.3974 beta
    D(  119) --> S(    1) amplitude =  0.2165 beta
    D(  120) --> S(    1) amplitude = -0.3374 beta
    D(  121) --> S(    1) amplitude =  0.2415 beta
    D(  123) --> S(    1) amplitude = -0.2878 beta
    D(  124) --> S(    1) amplitude = -0.2248 beta
    D(  125) --> S(    4) amplitude =  0.1542 beta

 Excited state  30: excitation energy (eV) =       4.9602
 Total energy for state  30:                 -2972.33410440 au
    <S**2>     :  8.7948
    Trans. Mom.:  0.0918 X  -0.0347 Y   0.0315 Z
    Strength   :     0.0012913956
    D(  116) --> S(    2) amplitude =  0.3464 beta
    D(  116) --> S(    3) amplitude =  0.4684 beta
    D(  117) --> S(    2) amplitude = -0.2934 beta
    D(  117) --> S(    3) amplitude = -0.3852 beta
    D(  119) --> S(    2) amplitude =  0.2172 beta
    D(  119) --> S(    3) amplitude =  0.2598 beta
    D(  120) --> S(    2) amplitude = -0.1791 beta
    D(  120) --> S(    3) amplitude = -0.2513 beta

 Excited state  31: excitation energy (eV) =       4.9952
 Total energy for state  31:                 -2972.33281985 au
    <S**2>     :  9.7246
    Trans. Mom.:  0.1428 X  -0.1042 Y  -0.0395 Z
    Strength   :     0.0040132341
    D(  113) --> S(    3) amplitude =  0.2437 beta
    D(  115) --> S(    2) amplitude = -0.1610 beta
    D(  115) --> S(    3) amplitude =  0.3515 beta
    D(  116) --> S(    3) amplitude =  0.1502 beta
    D(  117) --> S(    3) amplitude = -0.1579 beta
    D(  121) --> S(    3) amplitude = -0.1639 beta
    D(  128) --> V(   18) amplitude =  0.1558 beta

 Excited state  32: excitation energy (eV) =       5.0084
 Total energy for state  32:                 -2972.33233462 au
    <S**2>     :  9.4501
    Trans. Mom.:  0.0253 X  -0.1404 Y   0.0399 Z
    Strength   :     0.0026910582
    D(  113) --> S(    3) amplitude =  0.2700 beta
    D(  115) --> S(    3) amplitude =  0.3772 beta
    D(  116) --> S(    2) amplitude = -0.1840 beta
    D(  116) --> S(    3) amplitude =  0.1692 beta
    D(  117) --> S(    3) amplitude = -0.1797 beta
    D(  121) --> S(    3) amplitude = -0.1522 beta
    D(  123) --> S(    1) amplitude =  0.1707 beta

 Excited state  33: excitation energy (eV) =       5.0201
 Total energy for state  33:                 -2972.33190464 au
    <S**2>     :  9.2982
    Trans. Mom.: -0.1442 X   0.0400 Y   0.0449 Z
    Strength   :     0.0030026267
    D(  112) --> S(    2) amplitude = -0.1607 beta
    D(  113) --> S(    1) amplitude = -0.1906 beta
    D(  113) --> S(    2) amplitude =  0.2857 beta
    D(  115) --> S(    1) amplitude = -0.2040 beta
    D(  115) --> S(    2) amplitude =  0.3065 beta
    D(  117) --> S(    1) amplitude = -0.1682 beta
    D(  119) --> S(    1) amplitude =  0.2504 beta
    D(  121) --> S(    2) amplitude = -0.2047 beta
    D(  123) --> S(    1) amplitude =  0.2081 beta
    D(  125) --> S(    1) amplitude = -0.2095 beta

 Excited state  34: excitation energy (eV) =       5.0431
 Total energy for state  34:                 -2972.33105930 au
    <S**2>     :  8.9073
    Trans. Mom.: -0.2254 X  -0.1242 Y  -0.0964 Z
    Strength   :     0.0093283099
    D(  111) --> S(    2) amplitude =  0.1526 beta
    D(  112) --> S(    2) amplitude = -0.1663 beta
    D(  113) --> S(    1) amplitude =  0.2466 beta
    D(  113) --> S(    2) amplitude =  0.3071 beta
    D(  115) --> S(    1) amplitude =  0.1825 beta
    D(  115) --> S(    2) amplitude =  0.4010 beta
    D(  116) --> S(    2) amplitude =  0.2266 beta
    D(  117) --> S(    2) amplitude = -0.2380 beta
    D(  119) --> S(    1) amplitude = -0.1983 beta
    D(  123) --> S(    1) amplitude = -0.2174 beta
    D(  125) --> S(    1) amplitude =  0.1804 beta

 Excited state  35: excitation energy (eV) =       5.0678
 Total energy for state  35:                 -2972.33015008 au
    <S**2>     :  8.9529
    Trans. Mom.: -0.1806 X   0.0255 Y  -0.1922 Z
    Strength   :     0.0087159182
    D(  116) --> S(    2) amplitude =  0.3203 beta
    D(  116) --> S(    3) amplitude = -0.2074 beta
    D(  117) --> S(    2) amplitude = -0.2792 beta
    D(  117) --> S(    3) amplitude =  0.1681 beta
    D(  119) --> S(    1) amplitude =  0.1609 beta
    D(  119) --> S(    2) amplitude =  0.2285 beta
    D(  120) --> S(    2) amplitude = -0.2510 beta
    D(  120) --> S(    3) amplitude =  0.2057 beta
    D(  121) --> S(    2) amplitude =  0.2014 beta
    D(  123) --> S(    2) amplitude = -0.1610 beta
    D(  124) --> S(    3) amplitude =  0.1770 beta

 Excited state  36: excitation energy (eV) =       5.1751
 Total energy for state  36:                 -2972.32620868 au
    <S**2>     : 10.7025
    Trans. Mom.:  0.0748 X   0.0373 Y   0.0235 Z
    Strength   :     0.0009555875
    D(  119) --> V(   10) amplitude =  0.3098 alpha
    D(  120) --> V(   10) amplitude =  0.1732 alpha
    D(  122) --> V(   10) amplitude = -0.2305 alpha
    D(  116) --> V(   10) amplitude = -0.2890 beta
    D(  117) --> V(   10) amplitude = -0.2636 beta

 Excited state  37: excitation energy (eV) =       5.1838
 Total energy for state  37:                 -2972.32588986 au
    <S**2>     :  9.6144
    Trans. Mom.: -0.6256 X  -0.4720 Y  -0.2137 Z
    Strength   :     0.0837996744
    D(  116) --> S(    2) amplitude =  0.1708 beta
    D(  123) --> V(    1) amplitude = -0.1771 beta
    D(  126) --> V(    1) amplitude =  0.4389 beta
    D(  126) --> V(    3) amplitude = -0.1543 beta

 Excited state  38: excitation energy (eV) =       5.1974
 Total energy for state  38:                 -2972.32538957 au
    <S**2>     :  9.8800
    Trans. Mom.: -0.0407 X  -0.0074 Y  -0.0366 Z
    Strength   :     0.0003881922
    D(  110) --> S(    1) amplitude = -0.2089 beta
    D(  113) --> S(    1) amplitude =  0.3384 beta
    D(  115) --> S(    1) amplitude = -0.1834 beta
    D(  116) --> S(    1) amplitude = -0.2275 beta
    D(  127) --> V(   18) amplitude =  0.1508 beta

 Excited state  39: excitation energy (eV) =       5.2377
 Total energy for state  39:                 -2972.32390699 au
    <S**2>     :  9.3112
    Trans. Mom.: -0.3696 X  -0.3717 Y  -0.1233 Z
    Strength   :     0.0372152789
    D(  110) --> S(    4) amplitude =  0.1756 beta
    D(  113) --> S(    1) amplitude =  0.1618 beta
    D(  114) --> S(    1) amplitude =  0.1632 beta
    D(  119) --> S(    4) amplitude =  0.2024 beta
    D(  122) --> S(    4) amplitude = -0.2388 beta
    D(  125) --> S(    4) amplitude = -0.1692 beta
    D(  125) --> V(    1) amplitude = -0.1850 beta
    D(  126) --> V(    1) amplitude =  0.2879 beta

 Excited state  40: excitation energy (eV) =       5.2899
 Total energy for state  40:                 -2972.32198940 au
    <S**2>     :  9.4495
    Trans. Mom.:  0.2083 X   0.2362 Y   0.0773 Z
    Strength   :     0.0136261583
    D(  113) --> S(    1) amplitude =  0.2873 beta
    D(  114) --> S(    1) amplitude =  0.4419 beta
    D(  120) --> S(    1) amplitude =  0.1827 beta
    D(  126) --> V(    1) amplitude = -0.2762 beta

 Excited state  41: excitation energy (eV) =       5.2984
 Total energy for state  41:                 -2972.32167555 au
    <S**2>     : 10.5164
    Trans. Mom.: -0.1005 X  -0.0926 Y  -0.0372 Z
    Strength   :     0.0026034987
    D(  126) --> V(   11) amplitude = -0.2353 alpha
    D(  126) --> V(   12) amplitude =  0.1805 alpha
    D(  126) --> V(   14) amplitude =  0.1856 alpha
    D(  126) --> V(   15) amplitude =  0.2390 alpha
    D(  121) --> V(   11) amplitude =  0.2165 beta
    D(  121) --> V(   14) amplitude = -0.1934 beta
    D(  121) --> V(   15) amplitude = -0.2244 beta

 Excited state  42: excitation energy (eV) =       5.3331
 Total energy for state  42:                 -2972.32040146 au
    <S**2>     :  8.8505
    Trans. Mom.:  0.1058 X  -0.0723 Y   0.0139 Z
    Strength   :     0.0021709831
    D(  113) --> S(    3) amplitude = -0.1818 beta
    D(  114) --> S(    1) amplitude = -0.1646 beta
    D(  119) --> S(    2) amplitude = -0.1724 beta
    D(  119) --> S(    3) amplitude =  0.2127 beta
    D(  121) --> S(    3) amplitude = -0.2343 beta
    D(  123) --> S(    2) amplitude = -0.2708 beta
    D(  123) --> S(    3) amplitude =  0.4364 beta
    D(  125) --> S(    2) amplitude =  0.2241 beta
    D(  125) --> S(    3) amplitude = -0.3142 beta
    D(  126) --> S(    2) amplitude = -0.1651 beta
    D(  126) --> S(    3) amplitude =  0.2141 beta

 Excited state  43: excitation energy (eV) =       5.3739
 Total energy for state  43:                 -2972.31890349 au
    <S**2>     : 10.7132
    Trans. Mom.: -0.1024 X   0.0047 Y   0.0054 Z
    Strength   :     0.0013884495
    D(  128) --> V(   11) amplitude =  0.1788 alpha
    D(  128) --> V(   13) amplitude = -0.1737 alpha
    D(  128) --> V(   18) amplitude = -0.2229 alpha
    D(  128) --> V(   19) amplitude =  0.2352 alpha
    D(  124) --> V(   18) amplitude =  0.1731 beta
    D(  124) --> V(   19) amplitude =  0.1640 beta

 Excited state  44: excitation energy (eV) =       5.3802
 Total energy for state  44:                 -2972.31867090 au
    <S**2>     :  8.8000
    Trans. Mom.: -0.0010 X  -0.0435 Y  -0.0243 Z
    Strength   :     0.0003267753
    D(  115) --> S(    2) amplitude = -0.2307 beta
    D(  115) --> S(    3) amplitude = -0.1917 beta
    D(  117) --> S(    2) amplitude = -0.1571 beta
    D(  119) --> S(    2) amplitude =  0.2414 beta
    D(  119) --> S(    3) amplitude =  0.1794 beta
    D(  121) --> S(    2) amplitude = -0.1940 beta
    D(  121) --> S(    3) amplitude = -0.1584 beta
    D(  123) --> S(    2) amplitude =  0.4113 beta
    D(  123) --> S(    3) amplitude =  0.2968 beta
    D(  124) --> S(    2) amplitude =  0.1521 beta
    D(  125) --> S(    2) amplitude = -0.3433 beta
    D(  125) --> S(    3) amplitude = -0.2388 beta
    D(  126) --> S(    2) amplitude =  0.2431 beta
    D(  126) --> S(    3) amplitude =  0.1647 beta

 Excited state  45: excitation energy (eV) =       5.4054
 Total energy for state  45:                 -2972.31774641 au
    <S**2>     :  8.8438
    Trans. Mom.:  0.5878 X   0.0578 Y  -0.0182 Z
    Strength   :     0.0462422638
    D(  110) --> S(    3) amplitude =  0.1611 beta
    D(  113) --> S(    3) amplitude = -0.3430 beta
    D(  114) --> S(    3) amplitude = -0.2284 beta
    D(  115) --> S(    3) amplitude =  0.2665 beta
    D(  117) --> S(    3) amplitude =  0.1524 beta
    D(  119) --> S(    4) amplitude =  0.2610 beta
    D(  122) --> S(    4) amplitude = -0.1626 beta
    D(  123) --> S(    2) amplitude =  0.1577 beta
    D(  125) --> V(    1) amplitude = -0.1967 beta
    D(  126) --> V(    1) amplitude = -0.2164 beta

 Excited state  46: excitation energy (eV) =       5.4135
 Total energy for state  46:                 -2972.31744820 au
    <S**2>     :  8.8095
    Trans. Mom.: -0.5125 X   0.1023 Y  -0.0978 Z
    Strength   :     0.0374962601
    D(  113) --> S(    2) amplitude = -0.1932 beta
    D(  113) --> S(    3) amplitude = -0.2608 beta
    D(  114) --> S(    3) amplitude = -0.2151 beta
    D(  121) --> S(    4) amplitude = -0.2749 beta
    D(  122) --> S(    4) amplitude =  0.5614 beta
    D(  123) --> S(    3) amplitude =  0.1573 beta
    D(  124) --> S(    4) amplitude = -0.2181 beta

 Excited state  47: excitation energy (eV) =       5.4524
 Total energy for state  47:                 -2972.31601683 au
    <S**2>     :  8.8574
    Trans. Mom.:  0.3987 X   0.1112 Y   0.1075 Z
    Strength   :     0.0244292130
    D(  110) --> S(    2) amplitude =  0.1984 beta
    D(  112) --> S(    2) amplitude =  0.1557 beta
    D(  113) --> S(    2) amplitude = -0.4759 beta
    D(  114) --> S(    2) amplitude = -0.1959 beta
    D(  115) --> S(    2) amplitude =  0.2755 beta
    D(  116) --> S(    2) amplitude =  0.1963 beta
    D(  117) --> S(    2) amplitude =  0.1942 beta
    D(  118) --> S(    2) amplitude =  0.1582 beta
    D(  119) --> S(    2) amplitude = -0.1536 beta
    D(  123) --> S(    2) amplitude =  0.2082 beta
    D(  125) --> V(    1) amplitude = -0.1636 beta
    D(  126) --> V(    1) amplitude = -0.1769 beta

 Excited state  48: excitation energy (eV) =       5.4645
 Total energy for state  48:                 -2972.31557183 au
    <S**2>     :  9.0110
    Trans. Mom.: -0.3415 X  -0.1195 Y  -0.0425 Z
    Strength   :     0.0177641783
    D(  110) --> S(    1) amplitude =  0.2514 beta
    D(  114) --> S(    1) amplitude =  0.4697 beta
    D(  115) --> S(    1) amplitude =  0.1615 beta
    D(  116) --> S(    1) amplitude =  0.2373 beta
    D(  120) --> S(    1) amplitude =  0.2142 beta
    D(  126) --> V(    1) amplitude =  0.1506 beta
    D(  127) --> S(    1) amplitude = -0.1504 beta
    D(  128) --> S(    1) amplitude =  0.1835 beta

 Excited state  49: excitation energy (eV) =       5.4940
 Total energy for state  49:                 -2972.31448734 au
    <S**2>     :  8.8199
    Trans. Mom.:  0.7467 X   0.2118 Y  -0.1704 Z
    Strength   :     0.0849889568
    D(  113) --> S(    3) amplitude =  0.2232 beta
    D(  114) --> S(    2) amplitude =  0.2590 beta
    D(  115) --> S(    3) amplitude = -0.1920 beta
    D(  118) --> S(    4) amplitude =  0.1729 beta
    D(  119) --> S(    4) amplitude =  0.2615 beta
    D(  122) --> S(    4) amplitude =  0.3080 beta
    D(  124) --> S(    4) amplitude = -0.1676 beta
    D(  125) --> V(    1) amplitude = -0.3887 beta
    D(  126) --> V(    1) amplitude = -0.2206 beta

 Excited state  50: excitation energy (eV) =       5.5335
 Total energy for state  50:                 -2972.31303872 au
    <S**2>     :  8.8490
    Trans. Mom.: -0.1686 X   0.1468 Y  -0.0232 Z
    Strength   :     0.0068493192
    D(  110) --> S(    2) amplitude =  0.2555 beta
    D(  111) --> S(    1) amplitude =  0.1927 beta
    D(  114) --> S(    2) amplitude =  0.4590 beta
    D(  116) --> S(    2) amplitude =  0.2125 beta
    D(  120) --> S(    2) amplitude =  0.2311 beta
    D(  128) --> S(    2) amplitude =  0.1691 beta

 Excited state  51: excitation energy (eV) =       5.5466
 Total energy for state  51:                 -2972.31255598 au
    <S**2>     :  8.7989
    Trans. Mom.: -0.1556 X  -0.0216 Y   0.0216 Z
    Strength   :     0.0034157909
    D(  110) --> S(    3) amplitude =  0.2460 beta
    D(  111) --> S(    1) amplitude =  0.2921 beta
    D(  111) --> S(    3) amplitude = -0.2018 beta
    D(  114) --> S(    3) amplitude =  0.4545 beta
    D(  116) --> S(    3) amplitude =  0.1798 beta
    D(  118) --> S(    3) amplitude = -0.1594 beta
    D(  119) --> S(    4) amplitude =  0.2257 beta
    D(  120) --> S(    3) amplitude =  0.2779 beta
    D(  125) --> V(    1) amplitude =  0.1718 beta
    D(  128) --> S(    3) amplitude =  0.2338 beta

 Excited state  52: excitation energy (eV) =       5.5874
 Total energy for state  52:                 -2972.31105673 au
    <S**2>     :  8.8027
    Trans. Mom.: -0.2909 X  -0.1457 Y   0.1590 Z
    Strength   :     0.0179517269
    D(  110) --> S(    3) amplitude =  0.1917 beta
    D(  111) --> S(    1) amplitude = -0.4800 beta
    D(  114) --> S(    1) amplitude = -0.1760 beta
    D(  114) --> S(    2) amplitude =  0.4177 beta
    D(  120) --> S(    2) amplitude =  0.1888 beta

 Excited state  53: excitation energy (eV) =       5.6210
 Total energy for state  53:                 -2972.30982297 au
    <S**2>     :  8.8295
    Trans. Mom.: -0.0724 X   0.2837 Y   0.0074 Z
    Strength   :     0.0118106376
    D(  110) --> S(    4) amplitude =  0.3513 beta
    D(  111) --> S(    1) amplitude = -0.2048 beta
    D(  111) --> S(    4) amplitude =  0.1887 beta
    D(  113) --> S(    4) amplitude = -0.1912 beta
    D(  115) --> S(    4) amplitude = -0.3400 beta
    D(  119) --> S(    4) amplitude =  0.3839 beta
    D(  123) --> S(    4) amplitude = -0.2639 beta
    D(  124) --> S(    4) amplitude =  0.2763 beta
    D(  125) --> S(    4) amplitude =  0.1576 beta
    D(  126) --> S(    4) amplitude = -0.1808 beta

 Excited state  54: excitation energy (eV) =       5.6501
 Total energy for state  54:                 -2972.30875223 au
    <S**2>     :  9.6959
    Trans. Mom.:  0.0057 X  -0.0812 Y  -0.0825 Z
    Strength   :     0.0018580620
    S(    1) --> V(   22) amplitude = -0.1927 alpha
    S(    1) --> V(   25) amplitude = -0.1963 alpha
    D(  123) --> S(    1) amplitude =  0.2066 beta

 Excited state  55: excitation energy (eV) =       5.6569
 Total energy for state  55:                 -2972.30850155 au
    <S**2>     : 10.4010
    Trans. Mom.: -0.0201 X   0.0444 Y   0.0179 Z
    Strength   :     0.0003733692
    D(  123) --> V(   11) amplitude =  0.1992 alpha
    D(  123) --> V(   12) amplitude = -0.1561 alpha
    D(  123) --> V(   14) amplitude = -0.1599 alpha
    D(  123) --> V(   15) amplitude = -0.2006 alpha
    D(  118) --> V(   11) amplitude = -0.2361 beta
    D(  118) --> V(   14) amplitude =  0.2129 beta
    D(  118) --> V(   15) amplitude =  0.2426 beta

 Excited state  56: excitation energy (eV) =       5.6693
 Total energy for state  56:                 -2972.30804608 au
    <S**2>     :  9.1896
    Trans. Mom.: -0.1022 X   0.0143 Y   0.1263 Z
    Strength   :     0.0036953944
    D(  111) --> S(    2) amplitude =  0.2600 beta
    D(  114) --> S(    2) amplitude =  0.1796 beta
    D(  114) --> S(    3) amplitude = -0.2508 beta
    D(  123) --> S(    1) amplitude =  0.1922 beta

 Excited state  57: excitation energy (eV) =       5.6764
 Total energy for state  57:                 -2972.30778736 au
    <S**2>     :  8.9035
    Trans. Mom.:  0.0615 X  -0.0275 Y   0.0038 Z
    Strength   :     0.0006331087
    D(  119) --> V(   10) amplitude =  0.2167 alpha
    D(  122) --> V(   10) amplitude = -0.1652 alpha
    D(  111) --> S(    2) amplitude = -0.2085 beta
    D(  114) --> S(    2) amplitude = -0.1770 beta
    D(  114) --> S(    3) amplitude =  0.1645 beta
    D(  116) --> V(   10) amplitude =  0.1903 beta
    D(  117) --> V(   10) amplitude =  0.1811 beta

 Excited state  58: excitation energy (eV) =       5.7034
 Total energy for state  58:                 -2972.30679451 au
    <S**2>     : 10.4862
    Trans. Mom.:  0.0202 X  -0.0054 Y   0.0491 Z
    Strength   :     0.0003983734
    D(  115) --> V(   10) amplitude = -0.2319 alpha
    D(  116) --> V(   10) amplitude = -0.2729 alpha
    D(  112) --> V(   10) amplitude = -0.2961 beta
    D(  113) --> V(   10) amplitude = -0.1771 beta
    D(  121) --> S(    1) amplitude = -0.2230 beta

 Excited state  59: excitation energy (eV) =       5.7220
 Total energy for state  59:                 -2972.30611102 au
    <S**2>     :  8.9984
    Trans. Mom.: -0.0938 X   0.1250 Y  -0.2243 Z
    Strength   :     0.0104789328
    D(  111) --> S(    3) amplitude =  0.2677 beta
    D(  114) --> S(    3) amplitude =  0.2524 beta
    D(  115) --> S(    4) amplitude = -0.1796 beta
    D(  119) --> V(    1) amplitude = -0.2453 beta
    D(  121) --> S(    1) amplitude =  0.2182 beta
    D(  122) --> V(    1) amplitude =  0.1631 beta
    D(  123) --> S(    1) amplitude =  0.1868 beta
    D(  123) --> S(    3) amplitude =  0.1700 beta
    D(  124) --> S(    4) amplitude =  0.1727 beta
    D(  125) --> V(    1) amplitude = -0.2263 beta
    D(  127) --> S(    3) amplitude = -0.1570 beta

 Excited state  60: excitation energy (eV) =       5.7313
 Total energy for state  60:                 -2972.30576890 au
    <S**2>     :  9.0120
    Trans. Mom.: -0.0078 X  -0.0529 Y   0.0796 Z
    Strength   :     0.0012915778
    D(  111) --> S(    2) amplitude = -0.3723 beta
    D(  111) --> S(    3) amplitude = -0.3667 beta
    D(  114) --> S(    3) amplitude = -0.2391 beta
    D(  121) --> S(    1) amplitude =  0.3626 beta
    D(  122) --> S(    1) amplitude =  0.1550 beta
    D(  123) --> S(    1) amplitude =  0.2206 beta
    D(  123) --> S(    3) amplitude = -0.1699 beta
    D(  128) --> S(    2) amplitude =  0.1536 beta

 Excited state  61: excitation energy (eV) =       5.7532
 Total energy for state  61:                 -2972.30496337 au
    <S**2>     :  9.1798
    Trans. Mom.: -0.0365 X  -0.1047 Y   0.0520 Z
    Strength   :     0.0021146423
    D(  111) --> S(    2) amplitude =  0.2794 beta
    D(  120) --> S(    1) amplitude =  0.2131 beta
    D(  121) --> S(    1) amplitude =  0.4853 beta
    D(  122) --> S(    1) amplitude =  0.1636 beta
    D(  123) --> S(    1) amplitude =  0.2155 beta
    D(  123) --> S(    2) amplitude =  0.1508 beta

 Excited state  62: excitation energy (eV) =       5.7670
 Total energy for state  62:                 -2972.30445437 au
    <S**2>     :  9.9378
    Trans. Mom.:  0.0567 X  -0.0413 Y   0.0604 Z
    Strength   :     0.0012116535
    D(  111) --> S(    2) amplitude = -0.1571 beta
    D(  111) --> S(    3) amplitude = -0.1689 beta
    D(  121) --> S(    1) amplitude = -0.1787 beta

 Excited state  63: excitation energy (eV) =       5.7914
 Total energy for state  63:                 -2972.30355887 au
    <S**2>     :  8.7620
    Trans. Mom.:  0.0443 X  -0.0179 Y  -0.0003 Z
    Strength   :     0.0003240784
    D(  128) --> V(   11) amplitude = -0.1879 alpha
    D(  128) --> V(   13) amplitude =  0.1749 alpha
    D(  128) --> V(   18) amplitude =  0.2187 alpha
    D(  128) --> V(   19) amplitude = -0.2294 alpha
    D(  124) --> V(   18) amplitude =  0.1632 beta
    D(  124) --> V(   19) amplitude =  0.1538 beta

 Excited state  64: excitation energy (eV) =       5.8121
 Total energy for state  64:                 -2972.30279939 au
    <S**2>     :  8.9563
    Trans. Mom.: -0.0540 X   0.3393 Y  -0.2053 Z
    Strength   :     0.0228097155
    D(  111) --> S(    3) amplitude = -0.2720 beta
    D(  111) --> S(    4) amplitude = -0.1882 beta
    D(  112) --> S(    4) amplitude =  0.1772 beta
    D(  113) --> S(    4) amplitude = -0.2546 beta
    D(  115) --> S(    4) amplitude = -0.4001 beta
    D(  116) --> S(    4) amplitude = -0.2704 beta
    D(  117) --> S(    4) amplitude =  0.2542 beta
    D(  119) --> V(    1) amplitude = -0.1978 beta

 Excited state  65: excitation energy (eV) =       5.8308
 Total energy for state  65:                 -2972.30211152 au
    <S**2>     :  8.9085
    Trans. Mom.:  0.2839 X  -0.1122 Y   0.0121 Z
    Strength   :     0.0133313468
    D(  111) --> S(    2) amplitude =  0.1633 beta
    D(  111) --> S(    3) amplitude = -0.2332 beta
    D(  111) --> S(    4) amplitude =  0.1772 beta
    D(  112) --> S(    4) amplitude = -0.1824 beta
    D(  113) --> S(    4) amplitude =  0.1967 beta
    D(  114) --> S(    4) amplitude = -0.2119 beta
    D(  115) --> S(    4) amplitude =  0.2332 beta
    D(  117) --> S(    4) amplitude = -0.1547 beta
    D(  119) --> V(    1) amplitude = -0.1727 beta
    D(  120) --> S(    4) amplitude =  0.1787 beta
    D(  121) --> S(    2) amplitude =  0.1827 beta
    D(  121) --> S(    4) amplitude = -0.1804 beta
    D(  123) --> S(    2) amplitude =  0.1513 beta
    D(  124) --> S(    4) amplitude =  0.3001 beta
    D(  128) --> S(    4) amplitude =  0.1623 beta

 Excited state  66: excitation energy (eV) =       5.8516
 Total energy for state  66:                 -2972.30134627 au
    <S**2>     :  9.2202
    Trans. Mom.: -0.0700 X  -0.1799 Y   0.0797 Z
    Strength   :     0.0062517091
    D(  121) --> S(    2) amplitude =  0.3416 beta
    D(  123) --> S(    2) amplitude =  0.2103 beta
    D(  127) --> V(   18) amplitude =  0.1593 beta
    D(  127) --> V(   24) amplitude = -0.1520 beta
    D(  127) --> V(   26) amplitude = -0.1632 beta

 Excited state  67: excitation energy (eV) =       5.8697
 Total energy for state  67:                 -2972.30068074 au
    <S**2>     :  9.5357
    Trans. Mom.: -0.1407 X   0.0185 Y  -0.0893 Z
    Strength   :     0.0040416220
    D(  120) --> S(    2) amplitude =  0.2106 beta
    D(  121) --> S(    2) amplitude =  0.4967 beta
    D(  122) --> S(    2) amplitude =  0.1797 beta
    D(  123) --> S(    2) amplitude =  0.1944 beta

 Excited state  68: excitation energy (eV) =       5.8912
 Total energy for state  68:                 -2972.29989361 au
    <S**2>     :  9.7995
    Trans. Mom.:  0.1318 X   0.0919 Y  -0.0953 Z
    Strength   :     0.0050366613
    D(  114) --> S(    2) amplitude = -0.1745 beta
    D(  121) --> S(    2) amplitude =  0.3780 beta
    D(  121) --> S(    3) amplitude =  0.1691 beta

 Excited state  69: excitation energy (eV) =       5.8985
 Total energy for state  69:                 -2972.29962255 au
    <S**2>     :  9.4978
    Trans. Mom.:  0.0240 X  -0.0821 Y  -0.0274 Z
    Strength   :     0.0011660145
    D(  110) --> S(    1) amplitude = -0.2038 beta
    D(  118) --> S(    1) amplitude =  0.2400 beta
    D(  121) --> S(    1) amplitude =  0.1852 beta
    D(  121) --> S(    2) amplitude =  0.1893 beta
    D(  124) --> S(    1) amplitude =  0.2257 beta

 Excited state  70: excitation energy (eV) =       5.9088
 Total energy for state  70:                 -2972.29924441 au
    <S**2>     :  9.0338
    Trans. Mom.: -0.0295 X   0.0297 Y  -0.0584 Z
    Strength   :     0.0007466585
    D(  110) --> S(    1) amplitude = -0.3292 beta
    D(  114) --> S(    1) amplitude =  0.2317 beta
    D(  118) --> S(    1) amplitude =  0.3261 beta
    D(  121) --> S(    3) amplitude =  0.3484 beta
    D(  123) --> S(    3) amplitude =  0.1985 beta
    D(  124) --> S(    1) amplitude =  0.3163 beta
    D(  126) --> S(    1) amplitude = -0.1729 beta

 Excited state  71: excitation energy (eV) =       5.9211
 Total energy for state  71:                 -2972.29879216 au
    <S**2>     :  8.9933
    Trans. Mom.:  0.0582 X  -0.1915 Y   0.0458 Z
    Strength   :     0.0061149006
    D(  116) --> S(    4) amplitude = -0.2709 beta
    D(  117) --> S(    4) amplitude =  0.2320 beta
    D(  118) --> S(    1) amplitude = -0.1604 beta
    D(  119) --> S(    4) amplitude = -0.1556 beta
    D(  120) --> S(    3) amplitude =  0.2024 beta
    D(  121) --> S(    3) amplitude =  0.5309 beta
    D(  122) --> S(    3) amplitude =  0.1903 beta
    D(  123) --> S(    3) amplitude =  0.2499 beta

 Excited state  72: excitation energy (eV) =       5.9306
 Total energy for state  72:                 -2972.29844417 au
    <S**2>     :  8.9407
    Trans. Mom.: -0.0304 X   0.2985 Y  -0.0862 Z
    Strength   :     0.0141569699
    D(  116) --> S(    4) amplitude =  0.3700 beta
    D(  117) --> S(    4) amplitude = -0.2957 beta
    D(  118) --> S(    1) amplitude = -0.2407 beta
    D(  119) --> S(    4) amplitude =  0.1700 beta
    D(  119) --> V(    1) amplitude = -0.1574 beta
    D(  120) --> S(    3) amplitude =  0.1534 beta
    D(  120) --> S(    4) amplitude = -0.2392 beta
    D(  121) --> S(    3) amplitude =  0.3154 beta
    D(  121) --> S(    4) amplitude =  0.1893 beta
    D(  123) --> S(    4) amplitude = -0.2122 beta
    D(  124) --> S(    4) amplitude = -0.1613 beta

 Excited state  73: excitation energy (eV) =       5.9633
 Total energy for state  73:                 -2972.29724062 au
    <S**2>     :  9.6695
    Trans. Mom.:  0.0379 X   0.1373 Y   0.0022 Z
    Strength   :     0.0029662052
    S(    3) --> V(    3) amplitude =  0.1500 alpha
    S(    3) --> V(   10) amplitude = -0.1608 alpha
    S(    4) --> V(    3) amplitude =  0.1941 alpha
    S(    4) --> V(   10) amplitude = -0.2362 alpha
    S(    5) --> V(    1) amplitude =  0.3008 alpha
    S(    5) --> V(    3) amplitude =  0.2351 alpha
    S(    5) --> V(    5) amplitude =  0.1947 alpha
    S(    5) --> V(    6) amplitude = -0.1620 alpha
    S(    5) --> V(    8) amplitude = -0.1630 alpha
    S(    5) --> V(   10) amplitude = -0.3321 alpha

 Excited state  74: excitation energy (eV) =       5.9688
 Total energy for state  74:                 -2972.29704070 au
    <S**2>     :  9.0075
    Trans. Mom.:  0.0150 X  -0.0547 Y   0.0010 Z
    Strength   :     0.0004712696
    S(    5) --> V(   10) amplitude =  0.1565 alpha
    D(  110) --> S(    1) amplitude =  0.3121 beta
[...]
    1.69619     1.70189     1.70668     1.70802     1.71528     1.71623
    1.71995     1.72693     1.73086     1.74366     1.74464     1.75028
    1.75250     1.75875     1.76388     1.77002     1.77447     1.78410
    1.78760     1.79458     1.79854     1.80475     1.80711     1.81463
    1.81518     1.82240     1.82843     1.83800     1.84300     1.84768
    1.84928     1.85236     1.85681     1.85922     1.86381     1.87436
    1.87647     1.88593     1.88887     1.89079     1.90060     1.90645
    1.91169     1.91816     1.92009     1.92351     1.92694     1.92980
    1.93460     1.93997     1.94293     1.94791     1.95125     1.96191
    1.96362     1.97083     1.97548     1.98124     1.98761     1.99049
    1.99389     2.00439     2.00765     2.01630     2.01927     2.02519
    2.02773     2.03559     2.04193     2.04547     2.04787     2.05285
    2.06091     2.06307     2.06607     2.07494     2.08177     2.08459
    2.09024     2.09234     2.10049     2.11018     2.11344     2.12736
    2.13263     2.13974     2.14396     2.14498     2.15324     2.15739
    2.16770     2.17069     2.17490     2.18054     2.18423     2.19354
    2.19579     2.20132     2.20794     2.21089     2.21692     2.22423
    2.22877     2.24195     2.24704     2.25198     2.25676     2.26012
    2.26443     2.26890     2.27469     2.28477     2.29190     2.29646
    2.30671     2.31678     2.32175     2.32465     2.33016     2.33933
    2.35006     2.35257     2.35700     2.36342     2.36771     2.37611
    2.38011     2.38957     2.39741     2.40458     2.40870     2.41728
    2.42626     2.44194     2.44328     2.45419     2.45931     2.46304
    2.46851     2.47493     2.48130     2.48708     2.49290     2.50472
    2.50522     2.51033     2.51568     2.53179     2.54062     2.54337
    2.55267     2.55550     2.56420     2.56929     2.57689     2.58054
    2.59730     2.60343     2.61211     2.62175     2.62464     2.63779
    2.64240     2.65456     2.66416     2.67270     2.68033     2.68256
    2.68722     2.68903     2.70089     2.71554     2.72293     2.72915
    2.74975     2.75584     2.76601     2.77286     2.78867     2.80571
    2.81208     2.81334     2.81853     2.82584     2.83602     2.84375
    2.84720     2.86345     2.88025     2.88544     2.90674     2.91410
    2.92705     2.93570     2.94290     2.96151     2.97148     2.98651
    3.00229     3.01922     3.02666     3.03070     3.05845     3.07203
    3.08030     3.09695     3.11206     3.13262     3.16012     3.16429
    3.17385     3.18635     3.22326     3.24683     3.26670     3.29555
    3.30303     3.33376     3.37442     3.40408     3.42024     3.46373
    3.48198     3.49119     3.50107     3.50280     3.50556     3.51362
    3.51678     3.52732     3.53258     3.53864     3.53979     3.54068
    3.54752     3.55244     3.55415     3.56634     3.57182     3.57781
    3.58221     3.59236     3.59853     3.60376     3.60658     3.61746
    3.62347     3.62828     3.63552     3.64002     3.64816     3.65935
    3.66223     3.66772     3.68161     3.68989     3.69377     3.70832
    3.71716     3.73298     3.73822     3.74522     3.74627     3.76361
    3.77157     3.77920     3.79444     3.80618     3.81206     3.82671
    3.83772     3.84888     3.85106     3.86536     3.87385     3.88159
    3.90388     3.90844     3.92208     3.92721     3.93803     3.95790
    3.96998     3.98339     3.99636     4.01015     4.02302     4.03184
    4.04960     4.07862     4.08542     4.11046     4.11771     4.13495
    4.19229     4.20726     4.22511     4.26091     4.31440     4.32292
    4.38323     4.40119     4.48541     4.56779     4.61695     4.66483
 
 Beta MOs
 -- Occupied --
 -256.23779   -30.14163   -26.01208   -26.01079   -26.00933   -19.26563
  -19.22392   -19.21415   -19.20509   -19.19775   -19.19689   -19.19499
  -19.19183   -19.18765   -19.18311   -19.18243   -19.17107   -19.16751
  -14.44342   -14.42768   -10.40224   -10.38283   -10.37220   -10.36402
  -10.36091   -10.36018   -10.34100   -10.31653   -10.31214   -10.31066
  -10.29858   -10.26844   -10.25883   -10.25802   -10.25460   -10.25273
   -3.50838    -2.27020    -2.26739    -2.26523    -1.18667    -1.14212
   -1.13620    -1.13560    -1.12906    -1.12289    -1.10373    -1.09046
   -1.06684    -1.05420    -1.04512    -1.03800    -1.03383    -1.01973
   -0.99916    -0.89552    -0.85958    -0.85002    -0.82158    -0.80778
   -0.76397    -0.75212    -0.72657    -0.70315    -0.68658    -0.67138
   -0.64308    -0.63843    -0.62135    -0.61553    -0.60585    -0.58942
   -0.57558    -0.57327    -0.56896    -0.56383    -0.55418    -0.54907
   -0.54726    -0.53945    -0.53414    -0.52575    -0.52335    -0.52078
   -0.51330    -0.51007    -0.50628    -0.50155    -0.49671    -0.49166
   -0.48664    -0.48115    -0.47509    -0.47219    -0.46957    -0.46261
   -0.46090    -0.45628    -0.45370    -0.45275    -0.44518    -0.43890
   -0.43469    -0.43218    -0.42865    -0.42150    -0.41090    -0.40715
   -0.40381    -0.37646    -0.37421    -0.37095    -0.36412    -0.35847
   -0.35310    -0.35168    -0.34914    -0.34492    -0.33860    -0.33456
   -0.33211    -0.32996    -0.32724    -0.31988    -0.31280    -0.30500
   -0.29289    -0.28436
 -- Virtual --
   -0.03736    -0.03284    -0.03146    -0.00338     0.01374     0.01859
    0.01976     0.02017     0.02082     0.03161     0.03290     0.03519
    0.03685     0.03808     0.04207     0.04765     0.05251     0.05305
    0.05348     0.05916     0.06082     0.06213     0.06326     0.06802
    0.07188     0.07362     0.07671     0.07782     0.07835     0.08201
    0.08361     0.08476     0.08765     0.08885     0.09221     0.09498
    0.09590     0.09857     0.09972     0.10667     0.10788     0.10996
    0.11225     0.11428     0.11679     0.11938     0.12204     0.12458
    0.12757     0.13039     0.13153     0.13391     0.13645     0.13899
    0.13994     0.14264     0.14344     0.14668     0.14986     0.15090
    0.15308     0.15462     0.15634     0.15690     0.16115     0.16327
    0.16539     0.16841     0.17084     0.17348     0.17522     0.17729
    0.17915     0.18110     0.18462     0.18704     0.18820     0.18999
    0.19259     0.19527     0.19582     0.19892     0.20042     0.20409
    0.20611     0.20791     0.21083     0.21188     0.21546     0.21761
    0.21891     0.22193     0.22503     0.22703     0.22890     0.23128
    0.23642     0.23705     0.23984     0.24240     0.24579     0.24862
    0.25058     0.25089     0.25517     0.25722     0.25763     0.26362
    0.26432     0.26571     0.26942     0.27202     0.27307     0.27572
    0.27726     0.27818     0.28091     0.28185     0.28352     0.28627
    0.28912     0.29308     0.29455     0.29588     0.29955     0.30140
    0.30449     0.30701     0.30751     0.30895     0.31179     0.31386
    0.31689     0.31919     0.32053     0.32180     0.32335     0.32461
    0.32659     0.32861     0.33191     0.33420     0.33488     0.33635
    0.33850     0.34114     0.34260     0.34520     0.34657     0.34838
    0.35206     0.35490     0.35517     0.35823     0.35990     0.36151
    0.36276     0.36559     0.36807     0.36956     0.37222     0.37339
    0.37516     0.37949     0.38097     0.38217     0.38556     0.39008
    0.39029     0.39353     0.39660     0.39791     0.40180     0.40397
    0.40850     0.40936     0.41276     0.41403     0.41502     0.41762
    0.42292     0.42447     0.42625     0.42863     0.43169     0.43416
    0.43808     0.44012     0.44389     0.44427     0.44867     0.45042
    0.45282     0.45595     0.45973     0.46235     0.46380     0.46785
    0.46910     0.47378     0.47628     0.47803     0.48033     0.48499
    0.48728     0.49202     0.49471     0.49696     0.49829     0.50000
    0.50251     0.50401     0.50550     0.51263     0.51589     0.51685
    0.52127     0.52308     0.52676     0.52914     0.53181     0.53360
    0.53775     0.54152     0.54322     0.54815     0.55152     0.55387
    0.55661     0.56056     0.56210     0.56329     0.56751     0.57167
    0.57439     0.57603     0.57857     0.57998     0.58138     0.58790
    0.59080     0.59190     0.59506     0.59754     0.59872     0.60335
    0.60829     0.61225     0.61356     0.61544     0.62020     0.62264
    0.62439     0.62804     0.62995     0.63249     0.63395     0.63859
    0.64032     0.64451     0.64737     0.65310     0.65650     0.65831
    0.66149     0.66503     0.66872     0.67127     0.67394     0.67581
    0.67819     0.68524     0.68659     0.69029     0.69648     0.69827
    0.70308     0.70518     0.70602     0.70800     0.71291     0.71631
    0.71878     0.72135     0.72675     0.72833     0.73326     0.73610
    0.73863     0.74278     0.74611     0.74829     0.74968     0.75279
    0.75406     0.75980     0.76100     0.76577     0.76690     0.77143
    0.77462     0.77687     0.77867     0.78758     0.78909     0.79174
    0.79669     0.79826     0.80143     0.80644     0.80866     0.81216
    0.81552     0.81670     0.82041     0.82457     0.82872     0.83296
    0.83730     0.83967     0.84077     0.84380     0.84877     0.85021
    0.85399     0.85777     0.85920     0.86507     0.86890     0.87334
    0.87647     0.87871     0.88123     0.88213     0.89220     0.89818
    0.89832     0.90237     0.90575     0.90808     0.91193     0.91789
    0.92051     0.92233     0.93042     0.93328     0.94099     0.94409
    0.94423     0.95023     0.95367     0.96031     0.96423     0.96828
    0.97099     0.97674     0.98275     0.98328     0.99039     0.99364
    0.99436     0.99734     0.99984     1.00730     1.01434     1.01670
    1.01820     1.02539     1.02821     1.03195     1.04178     1.04299
    1.04537     1.04696     1.04897     1.05783     1.06217     1.06514
    1.07384     1.07537     1.08101     1.08428     1.08673     1.08952
    1.09218     1.09872     1.10253     1.10708     1.11024     1.11355
    1.12026     1.12122     1.12467     1.12798     1.13361     1.13611
    1.14058     1.14761     1.15385     1.15836     1.16426     1.16852
    1.17336     1.17704     1.18193     1.18580     1.18857     1.19453
    1.19691     1.19990     1.20117     1.20783     1.21421     1.21661
    1.22149     1.22753     1.23139     1.23230     1.24221     1.24354
    1.24752     1.25183     1.25503     1.25632     1.26566     1.26689
    1.27567     1.27868     1.28238     1.28939     1.29445     1.29778
    1.30427     1.31140     1.31421     1.31526     1.31749     1.32158
    1.32618     1.33043     1.33686     1.34152     1.34625     1.35041
    1.35413     1.36145     1.36470     1.37012     1.37428     1.37929
    1.38583     1.38937     1.39173     1.39672     1.39885     1.40223
    1.40418     1.41407     1.41672     1.42841     1.43133     1.43746
    1.44813     1.44967     1.45581     1.45592     1.46714     1.47081
    1.47840     1.48589     1.48999     1.49187     1.50139     1.50769
    1.50832     1.51811     1.52209     1.53164     1.53516     1.54261
    1.54717     1.55000     1.55156     1.55524     1.56446     1.57292
    1.57700     1.58586     1.59406     1.59840     1.60224     1.60542
    1.60804     1.61686     1.62708     1.63225     1.63452     1.63692
    1.64288     1.64709     1.65112     1.65294     1.66072     1.67309
    1.67458     1.68359     1.68791     1.69320     1.69558     1.70002
    1.70416     1.70946     1.71060     1.71719     1.71873     1.72166
    1.72940     1.73421     1.74554     1.74901     1.75233     1.75589
    1.76211     1.76650     1.77459     1.78100     1.78639     1.79067
    1.79814     1.80386     1.80860     1.81042     1.81807     1.81915
    1.82530     1.83154     1.84101     1.84667     1.84942     1.85124
    1.85557     1.85962     1.86383     1.86693     1.87777     1.87960
    1.88963     1.89149     1.89498     1.90273     1.91073     1.91338
    1.92079     1.92158     1.92663     1.93026     1.93309     1.93738
    1.94414     1.94971     1.95197     1.95557     1.96568     1.96653
    1.97263     1.98010     1.98356     1.99038     1.99317     1.99745
    2.00653     2.00998     2.02074     2.02260     2.02766     2.03457
    2.04003     2.04342     2.04821     2.04959     2.05396     2.06337
    2.06682     2.06890     2.07783     2.08420     2.08617     2.09367
    2.09764     2.10445     2.11443     2.12019     2.12916     2.13425
    2.14106     2.14662     2.14757     2.15810     2.16052     2.17012
    2.17268     2.18186     2.18297     2.18696     2.19520     2.19777
    2.20551     2.21131     2.21490     2.21910     2.22797     2.23189
    2.24325     2.25083     2.25545     2.26002     2.26284     2.26773
    2.27025     2.27942     2.28678     2.29532     2.29943     2.31148
    2.32161     2.32547     2.32731     2.33381     2.34612     2.35287
    2.35654     2.36086     2.36855     2.37245     2.38195     2.38553
    2.39446     2.40098     2.40652     2.41125     2.42127     2.43316
    2.44429     2.44540     2.45885     2.46130     2.46736     2.47117
    2.47738     2.48487     2.48969     2.49485     2.50716     2.51159
    2.51476     2.51754     2.53463     2.54407     2.54664     2.55416
    2.55815     2.56714     2.57105     2.58200     2.58350     2.60151
    2.61037     2.61655     2.62582     2.62668     2.64143     2.64543
    2.65861     2.66877     2.67725     2.68383     2.68661     2.69428
    2.69587     2.70420     2.71943     2.72650     2.72998     2.75117
    2.75826     2.76697     2.77794     2.79026     2.80772     2.81350
    2.81520     2.82151     2.82915     2.83890     2.84612     2.85123
    2.86934     2.88606     2.88663     2.91158     2.92039     2.93063
    2.93826     2.94470     2.96695     2.97613     2.99021     3.00388
    3.02024     3.02962     3.04147     3.06101     3.07517     3.08570
    3.10498     3.11558     3.13785     3.16288     3.16844     3.19737
    3.21819     3.22927     3.25583     3.26865     3.29758     3.30566
    3.33516     3.37745     3.40852     3.42290     3.46588     3.48478
    3.49377     3.50216     3.50463     3.50729     3.51631     3.51910
    3.52978     3.53487     3.54030     3.54232     3.54321     3.54891
    3.55418     3.55757     3.57162     3.57459     3.58187     3.58553
    3.59419     3.60194     3.60576     3.61151     3.62000     3.62743
    3.63139     3.63959     3.64275     3.65193     3.66383     3.66724
    3.67199     3.68624     3.69445     3.70039     3.71238     3.72217
    3.74032     3.74522     3.74877     3.75571     3.76629     3.78222
    3.78873     3.80175     3.81444     3.82613     3.83082     3.84305
    3.85556     3.85973     3.87048     3.88084     3.89119     3.91169
    3.91624     3.93567     3.94181     3.95624     3.97542     3.99349
    4.00744     4.01603     4.02422     4.04821     4.05372     4.06594
    4.09463     4.12369     4.13320     4.14934     4.19280     4.21002
    4.23994     4.28151     4.30701     4.32850     4.40602     4.42957
    4.49006     4.55093     4.64321     4.68124     4.74883
 --------------------------------------------------------------
 
          Ground-State Mulliken Net Atomic Charges

     Atom                 Charge (a.u.)    Spin (a.u.)
  --------------------------------------------------------
      1 C                     1.225108       0.000494
      2 C                     0.108308       0.000143
      3 N                     0.381035       0.008209
      4 O                    -0.827478       0.000554
      5 C                    -0.235338      -0.019433
      6 C                     0.436051      -0.007355
      7 C                     2.034709       0.005904
      8 C                     0.875960       0.005629
      9 O                    -0.895500       0.189729
     10 H                    -0.605077      -0.000044
     11 H                    -0.627497       0.000861
     12 H                    -0.455496       0.000165
     13 H                    -0.332577       0.000140
     14 C                     0.516909       0.010692
     15 O                    -0.958548       0.002325
     16 N                     0.176437      -0.001578
     17 C                     1.324204       0.001679
     18 H                    -0.188894       0.000163
     19 C                     1.207090      -0.001425
     20 C                     1.920709      -0.000150
     21 O                    -0.688354       0.000169
     22 C                     0.871246       0.000686
     23 C                     1.812182       0.007455
     24 O                    -0.710343       0.000278
     25 C                    -0.476273      -0.009752
     26 C                     0.819605      -0.001566
     27 O                    -0.705960       0.217634
     28 C                     1.359397       0.014743
     29 C                     0.717728      -0.009126
     30 O                    -0.840324       0.010559
     31 O                    -0.845985       0.115551
     32 H                    -0.510860       0.000179
     33 H                    -0.629303      -0.000368
     34 H                    -0.612886      -0.003736
     35 H                    -0.592879       0.000064
     36 H                    -0.292015       0.000507
     37 H                    -0.396752       0.000001
     38 H                    -0.497899       0.001479
     39 O                    -0.916680       0.075631
     40 O                    -0.864168       0.011736
     41 H                    -0.692127      -0.000182
     42 H                    -0.195143       0.000061
     43 H                    -0.530265       0.000143
     44 H                    -0.214794       0.000113
     45 O                    -0.879244       0.008282
     46 O                    -0.904356       0.076839
     47 H                    -0.577475       0.001849
     48 Fe                    0.652766       4.240921
     49 O                    -0.408667       0.044853
     50 H                     0.356360      -0.001979
     51 H                     0.313354       0.000277
  --------------------------------------------------------
  Sum of atomic charges =    -2.000000
  Sum of spin   charges =     5.000000

 -----------------------------------------------------------------
                    Cartesian Multipole Moments
 -----------------------------------------------------------------
    Charge (ESU x 10^10)
                -9.6064
    Dipole Moment (Debye)
         X      14.2466      Y      16.3778      Z       3.0161
       Tot      21.9156
    Quadrupole Moments (Debye-Ang)
        XX    -356.1220     XY     -49.2461     YY    -266.4402
        XZ     -16.6742     YZ      33.9593     ZZ    -189.9637
    Octopole Moments (Debye-Ang^2)
       XXX    2561.9435    XXY     514.0097    XYY     512.8120
       YYY     514.2448    XXZ    -415.7146    XYZ     -45.5722
       YYZ    -426.1629    XZZ     465.0037    YZZ     286.9432
       ZZZ    -940.7163
    Hexadecapole Moments (Debye-Ang^3)
      XXXX  -25002.9750   XXXY   -4791.7412   XXYY   -4370.7361
      XYYY   -2091.5365   YYYY   -6489.8103   XXXZ    4208.0165
      XXYZ     828.3578   XYYZ     826.7052   YYYZ     782.9387
      XXZZ   -3925.6079   XYZZ   -1015.3455   YYZZ   -2100.6036
      XZZZ    2598.2171   YZZZ     951.4400   ZZZZ   -5227.8134
 -----------------------------------------------------------------
 Total job time:  132670.22s(wall), 1907170.81s(cpu) 
 Thu Oct 23 23:07:42 2025

        *************************************************************
        *                                                           *
        *  Thank you very much for using Q-Chem.  Have a nice day.  *
        *                                                           *
        *************************************************************


remove work dirs /scratch/cooksy_group/qchem16304.0 -- /scratch/cooksy_group/qchem16304.0
rm -rf /scratch/cooksy_group/qchem16304.0
rm -rf /scratch/cooksy_group/qchem16304
