You are running Q-Chem version: 6.2.0

#
# job setting
#
local host:  itcotck
current dir: /home/cooksy_group/sgardner/kupper
input file:  VF_RSR_b3lypDBJ_ccpVDZ_PCM_h2o_OPT.in
output file: 
nprocs     : 1
nthreads   : 16
#
# qchem installation setting
#
QC:          /opt/qchem/6.2.0
QCAUX:       /opt/qchem/6.2.0/qcaux
QCPROG:      /opt/qchem/6.2.0/exe/qcprog.exe_s
QCPROG_S:    /opt/qchem/6.2.0/exe/qcprog.exe_s
PARALLEL:    -DSERIAL
QCMPI:       seq
#
# qchem directory setting
#
qcrun:       qchem639704
QCSCRATCH:   /scratch/cooksy_group
QCLOCALSCR:  
QCTMPDIR:    /scratch/cooksy_group
QCFILEPREF:  /scratch/cooksy_group/qchem639704
QCSAVEDIR:   
workdirs:    /scratch/cooksy_group/qchem639704
workdir0:    /scratch/cooksy_group/qchem639704
partmpdirs =  
#
# parallel setting
#
QCRSH:           ssh
QCMPI:           seq
QCMPIRUN:        
QCMACHINEFILE:   /opt/qchem/6.2.0/bin/mpi/machines


#
# env setting
#
exported envs:   QC QCAUX QCSCRATCH QCRUNNAME QCFILEPREF QCPROG QCPROG_S GUIFILE

Running Job 1 of 1 VF_RSR_b3lypDBJ_ccpVDZ_PCM_h2o_OPT.in
qchem VF_RSR_b3lypDBJ_ccpVDZ_PCM_h2o_OPT.in_639704.0 /scratch/cooksy_group/qchem639704/ 1
/opt/qchem/6.2.0/exe/qcprog.exe_s VF_RSR_b3lypDBJ_ccpVDZ_PCM_h2o_OPT.in_639704.0 /scratch/cooksy_group/qchem639704/
                  Welcome to Q-Chem
     A Quantum Leap Into The Future Of Chemistry


 Q-Chem 6.2, Q-Chem, Inc., Pleasanton, CA (2024)

 E. Epifanovsky,  A. T. B. Gilbert,  Xintian Feng,  Joonho Lee,  Yuezhi Mao,  
 N. Mardirossian,  P. Pokhilko,  A. White,  M. Wormit,  M. P. Coons,  
 A. L. Dempwolff,  Zhengting Gan,  D. Hait,  P. R. Horn,  L. D. Jacobson,  
 I. Kaliman,  J. Kussmann,  A. W. Lange,  Ka Un Lao,  D. S. Levine,  Jie Liu,  
 S. C. McKenzie,  A. F. Morrison,  K. D. Nanda,  F. Plasser,  D. R. Rehn,  
 M. L. Vidal,  Zhi-Qiang You,  Ying Zhu,  Huseyin Aksu,  B. Alam,  
 B. Albrecht,  A. Aldossary,  E. Alguire,  J. H. Andersen,  
 J. E. Arias-Martinez,  V. Athavale,  D. Barton,  K. Begam,  A. Behn,  
 N. Bellonzi,  Y. A. Bernard,  E. J. Berquist,  H. Burton,  A. Carreras,  
 K. Carter-Fenk,  Mathew Chow,  Romit Chakraborty,  Chandrima Chakravarty,  
 Junhan Chen,  A. D. Chien,  K. D. Closser,  V. Cofer-Shabica,  L. Cunha,  
 S. Dasgupta,  Jia Deng,  Joseph Dickinson,  M. de Wergifosse,  
 M. Diedenhofen,  Hainam Do,  Wenjie Dou,  S. Ehlert,  Po-Tung Fang,  
 S. Fatehi,  Qingguo Feng,  Jonathan Fetherolf,  T. Friedhoff,  
 Thomas Froitzheim,  Sarai Folkestad,  B. Ganoe,  J. Gayvert,  Qinghui Ge,  
 G. Gidofalvi,  M. Gimferrer,  M. Goldey,  Montgomery Gray,  J. Gomes,  
 C. Gonzalez-Espinoza,  S. Gulania,  A. Gunina,  J. A. Gyamfi,  
 M. W. D. Hanson-Heine,  P. H. P. Harbach,  A. W. Hauser,  M. F. Herbst,  
 M. Hernandez Vera,  M. Hodecker,  Z. C. Holden,  S. Houck,  Xunkun Huang,  
 Kerwin Hui,  B. C. Huynh,  K. Ikeda,  M. Ivanov,  Nayanthara K. Jayadev,  
 Hyunjun Ji,  Zuxin Jin,  Hanjie Jiang,  Subrata Jana,  B. Kaduk,  
 S. Kaehler,  R. Kang,  K. Khistyaev,  Jaehoon Kim,  Yongbin Kim,  
 P. Klunzinger,  Z. Koczor-Benda,  Joong Hoon Koh,  D. Kosenkov,  
 Saikiran Kotaru,  L. Koulias,  T. Kowalczyk,  C. M. Krauter,  K. Kue,  
 A. Kunitsa,  T. Kus,  A. Landau,  K. V. Lawler,  D. Lefrancois,  S. Lehtola,  
 Rain Li,  Shaozhi Li,  Tao E. Li,  Yi-Pei Li,  Jiashu Liang,  M. Liebenthal,  
 Hung-Hsuan Lin,  You-Sheng Lin,  Fenglai Liu,  Kuan-Yu Liu,  Xiao Liu,  
 M. Loipersberger,  A. Luenser,  C. Malbon,  Aniket Mandal,  Manisha,  
 A. Manjanath,  P. Manohar,  E. Mansoor,  S. F. Manzer,  Shan-Ping Mao,  
 A. V. Marenich,  T. Markovich,  S. Mason,  F. Matz,  S. A. Maurer,  
 Samuel May,  Alexandra McIsaac,  P. F. McLaughlin,  M. F. S. J. Menger,  
 J.-M. Mewes,  S. A. Mewes,  P. Morgante,  Mohammad Mostafanejad,  
 Madhubani Mukherjee,  J. W. Mullinax,  Quyen Nguyen,  Avik Kumar Ojha,  
 K. J. Oosterbaan,  Eno Paenurk,  Xiaoliang Pan,  G. Paran,  V. Parravicini,  
 Alexander C. Paul,  Suranjan K. Paul,  F. Pavosevic,  Zheng Pei,  S. Prager,  
 E. I. Proynov,  E. Ramos,  B. Rana,  A. E. Rask,  A. Rettig,  R. M. Richard,  
 F. Rob,  E. Rossomme,  T. Scheele,  M. Scheurer,  M. Schneider,  
 P. E. Schneider,  Tim K. Schramm,  N. Sergueev,  S. M. Sharada,  
 Hengyuan Shen,  W. Skomorowski,  D. W. Small,  C. J. Stein,  
 Alistair J. Sterling,  Yingli Su,  Yu-Chuan Su,  E. J. Sundstrom,  
 J. Talbot,  Zhen Tao,  J. Thirman,  Hung-Yi Tsai,  T. Tsuchimochi,  
 N. M. Tubman,  C. Utku,  S. P. Veccham,  O. Vydrov,  Rahel Weiss,  
 J. Wenzel,  Jonathan Wong,  J. Witte,  H. Wu,  Yanze Wu,  A. Yamada,  
 Chou-Hsun Yang,  Kun Yao,  S. Yeganeh,  S. R. Yost,  Qi Yu,  A. Zech,  
 F. Zeller,  Chongxiao Zhao,  Igor Ying Zhang,  Xing Zhang,  Yu Zhang,  
 D. Zuev,  A. Aspuru-Guzik,  A. T. Bell,  N. A. Besley,  K. B. Bravaya,  
 B. R. Brooks,  D. Casanova,  Jeng-Da Chai,  Hsing-Ta Chen,  S. Coriani,  
 C. J. Cramer,  A. E. DePrince, III,  R. A. DiStasio Jr.,  A. Dreuw,  
 B. D. Dunietz,  T. R. Furlani,  W. A. Goddard III,  S. Grimme,  
 S. Hammes-Schiffer,  T. Head-Gordon,  W. J. Hehre,  Chao-Ping Hsu,  
 T.-C. Jagau,  Yousung Jung,  A. Klamt,  Jing Kong,  D. S. Lambrecht,  
 Xiangyuan Li,  WanZhen Liang,  N. J. Mayhall,  C. W. McCurdy,  J. B. Neaton,  
 T. Neudecker,  C. Ochsenfeld,  J. A. Parkhill,  R. Peverati,  
 V. A. Rassolov,  Haisheng Ren,  Yihan Shao,  L. V. Slipchenko,  
 R. P. Steele,  J. E. Subotnik,  A. J. W. Thom,  A. Tkatchenko,  
 D. G. Truhlar,  T. Van Voorhis,  Fan Wang,  T. A. Wesolowski,  K. B. Whaley,  
 H. L. Woodcock III,  P. M. Zimmerman,  S. Faraji,  P. M. W. Gill,  
 M. Head-Gordon,  J. M. Herbert,  A. I. Krylov

 Contributors to earlier versions of Q-Chem not listed above: 
 R. D. Adamson,  B. Austin,  R. Baer,  J. Baker,  G. J. O. Beran,  
 K. Brandhorst,  S. T. Brown,  E. F. C. Byrd,  Arup K. Chakraborty,  
 G. K. L. Chan,  Chun-Min Chang,  Yunqing Chen,  C.-L. Cheng,  
 Siu Hung Chien,  D. M. Chipman,  D. L. Crittenden,  H. Dachsel,  
 R. J. Doerksen,  A. D. Dutoi,  R. G. Edgar,  J. Fosso-Tande,  
 L. Fusti-Molnar,  D. Ghosh,  A. Ghysels,  A. Golubeva-Zadorozhnaya,  
 J. Gonthier,  M. S. Gordon,  S. R. Gwaltney,  G. Hawkins,  J. E. Herr,  
 A. Heyden,  S. Hirata,  E. G. Hohenstein,  G. Kedziora,  F. J. Keil,  
 C. Kelley,  Jihan Kim,  R. A. King,  R. Z. Khaliullin,  P. P. Korambath,  
 W. Kurlancheek,  A. Laurent,  A. M. Lee,  M. S. Lee,  S. V. Levchenko,  
 Ching Yeh Lin,  D. Liotard,  E. Livshits,  R. C. Lochan,  I. Lotan,  
 L. A. Martinez-Martinez,  P. E. Maslen,  N. Nair,  D. P. O'Neill,  
 D. Neuhauser,  E. Neuscamman,  C. M. Oana,  R. Olivares-Amaya,  R. Olson,  
 T. M. Perrine,  B. Peters,  P. A. Pieniazek,  A. Prociuk,  Y. M. Rhee,  
 J. Ritchie,  M. A. Rohrdanz,  E. Rosta,  N. J. Russ,  H. F. Schaefer III,  
 M. W. Schmidt,  N. E. Schultz,  S. Sharma,  N. Shenvi,  C. D. Sherrill,  
 A. C. Simmonett,  A. Sodt,  T. Stein,  D. Stuck,  K. S. Thanthiriwatte,  
 V. Vanovschi,  L. Vogt,  Tao Wang,  A. Warshel,  M. A. Watson,  
 C. F. Williams,  Q. Wu,  X. Xu,  Jun Yang,  W. Zhang,  Yan Zhao

   Please cite Q-Chem as follows:
  "Software for the frontiers of quantum chemistry:
   An overview of developments in the Q-Chem 5 package"
   J. Chem. Phys. 155, 084801 (2021)
   https://doi.org/10.1063/5.0055522 (open access)

 Q-Chem 6.2.0 for Intel X86 EM64T Linux

 Parts of Q-Chem use Armadillo 9.900.5 (Nocturnal Misbehaviour).
 http://arma.sourceforge.net/

 Q-Chem begins on Sun Sep  7 06:21:30 2025  

 Host: 
0

     Scratch files written to /scratch/cooksy_group/qchem639704//
 May224 |scratch|qcdevops|jenkins|workspace|build_RNUM -1
 Processing $rem in /opt/qchem/6.2.0/config/preferences:
 Processing $rem in /home/cooksy_group/.qchemrc:
 Symmetry turned off for PCM/SM12/SMD calculation

 Checking the input file for inconsistencies... 	...done.

--------------------------------------------------------------
User input:
--------------------------------------------------------------
$molecule
0 1
C   -7.8827478   -3.6332468    1.6494854
C   -7.7992348   -2.1176593    1.4770857
N   -6.6578879   -1.6734560    2.1421281
O   -8.5956518   -1.3649460    0.9021617
C   -5.8956568   -2.7351513    2.7950659
C   -6.5134672   -0.2240960    2.4095118
C   -6.4983486   -4.0305245    2.1912529
C   -4.3736082   -2.6723929    2.4796511
O   -5.9226457   -2.6371660    4.2470022
H   -5.8428081   -4.3349721    1.3736113
H   -6.5283745   -4.8084579    2.9544890
H   -8.6813557   -3.8432406    2.3704937
H   -8.1296422   -4.1158213    0.7023956
C   -5.0737620    0.2173909    2.0913202
O   -4.4628622   -0.2550324    1.1095536
N   -4.5371083    1.1614536    2.9066511
C   -7.0484582    0.1541965    3.8035846
H   -5.0421875    1.5110158    3.7135687
C   -3.1494082    1.6022536    2.7032548
C   -2.2271717    0.8187564    3.6544901
O   -0.8044000    1.2102300    3.4294606
C   -0.2066937    0.7009410    2.3105075
C    1.2122929    1.2001910    2.1686168
O   -0.7744415   -0.0350558    1.5013054
C    2.1295552    0.0918682    1.6057004
C    1.6025931   -0.3229726    0.2312358
O    2.1540124   -1.0835886    2.4330533
C    3.5468519    0.7060918    1.4006809
C    4.5029552   -0.2477114    0.7018855
O    5.4151303   -0.8605003    1.2430247
O    4.2804456   -0.4036962   -0.6487234
H   -3.0640870    2.6770582    2.8736272
H   -2.8834756    1.3511488    1.6763158
H   -2.3544203   -0.2511311    3.4851034
H   -2.4116878    1.0738728    4.6977195
H    1.5845025    1.5484760    3.1336380
H    3.9600083    0.9437432    2.3828636
H    3.4471341    1.6231585    0.8150446
O   -3.6534636   -2.1288298    3.5054834
O   -3.8600675   -3.1137193    1.4634290
H   -7.1600338    0.2331528    1.6492179
H   -6.8531058   -2.7099504    4.5892908
H   -6.4265591   -0.2827483    4.5854868
H   -8.0664453   -0.2338079    3.9043649
H   -7.0950890    1.2421586    3.9174703
H    3.5193101    0.1605783   -0.9746492
H   -4.2957996   -2.0396807    4.2840157
O    1.6290101    0.4610697   -0.7296197
O    1.2235235   -1.6103614    0.1476893
H    1.2078325    2.0386236    1.4625846
H    2.5297446   -0.8237323    3.3183574
H    0.9082432   -1.8149451   -0.7794639
$end

$rem
BASIS  =  cc-pVDZ
DFT_D  =  D3_BJ
GUI  =  2
JOB_TYPE  =  Optimization
MEM_TOTAL  =  30000
METHOD  =  B3LYP
SCF_CONVERGENCE  =  8
SCF_MAX_CYCLES  =  200
SOLVENT_METHOD  =  PCM
$end

$geom_opt
MAXITER  200
$end

$pcm
THEORY  CPCM
$end

$solvent
DIELECTRIC  78.39
$end


--------------------------------------------------------------
 Adding empirical dispersion correction 
 ----------------------------------------------------------------
 Doing -D3(BJ) with
 s6  =   1.00000
 s8  =   1.98890
 a1  =   0.39810
 a2  =   4.42110
 ----------------------------------------------------------------
 -D3 energy without 3body term =     -0.1090187584 hartrees
 ----------------------------------------------------------------
             Standard Nuclear Orientation (Angstroms)
    I     Atom           X                Y                Z
 ----------------------------------------------------------------
    1      C      -7.8827478000    -3.6332468000     1.6494854000
    2      C      -7.7992348000    -2.1176593000     1.4770857000
    3      N      -6.6578879000    -1.6734560000     2.1421281000
    4      O      -8.5956518000    -1.3649460000     0.9021617000
    5      C      -5.8956568000    -2.7351513000     2.7950659000
    6      C      -6.5134672000    -0.2240960000     2.4095118000
    7      C      -6.4983486000    -4.0305245000     2.1912529000
    8      C      -4.3736082000    -2.6723929000     2.4796511000
    9      O      -5.9226457000    -2.6371660000     4.2470022000
   10      H      -5.8428081000    -4.3349721000     1.3736113000
   11      H      -6.5283745000    -4.8084579000     2.9544890000
   12      H      -8.6813557000    -3.8432406000     2.3704937000
   13      H      -8.1296422000    -4.1158213000     0.7023956000
   14      C      -5.0737620000     0.2173909000     2.0913202000
   15      O      -4.4628622000    -0.2550324000     1.1095536000
   16      N      -4.5371083000     1.1614536000     2.9066511000
   17      C      -7.0484582000     0.1541965000     3.8035846000
   18      H      -5.0421875000     1.5110158000     3.7135687000
   19      C      -3.1494082000     1.6022536000     2.7032548000
   20      C      -2.2271717000     0.8187564000     3.6544901000
   21      O      -0.8044000000     1.2102300000     3.4294606000
   22      C      -0.2066937000     0.7009410000     2.3105075000
   23      C       1.2122929000     1.2001910000     2.1686168000
   24      O      -0.7744415000    -0.0350558000     1.5013054000
   25      C       2.1295552000     0.0918682000     1.6057004000
   26      C       1.6025931000    -0.3229726000     0.2312358000
   27      O       2.1540124000    -1.0835886000     2.4330533000
   28      C       3.5468519000     0.7060918000     1.4006809000
   29      C       4.5029552000    -0.2477114000     0.7018855000
   30      O       5.4151303000    -0.8605003000     1.2430247000
   31      O       4.2804456000    -0.4036962000    -0.6487234000
   32      H      -3.0640870000     2.6770582000     2.8736272000
   33      H      -2.8834756000     1.3511488000     1.6763158000
   34      H      -2.3544203000    -0.2511311000     3.4851034000
   35      H      -2.4116878000     1.0738728000     4.6977195000
   36      H       1.5845025000     1.5484760000     3.1336380000
   37      H       3.9600083000     0.9437432000     2.3828636000
   38      H       3.4471341000     1.6231585000     0.8150446000
   39      O      -3.6534636000    -2.1288298000     3.5054834000
   40      O      -3.8600675000    -3.1137193000     1.4634290000
   41      H      -7.1600338000     0.2331528000     1.6492179000
   42      H      -6.8531058000    -2.7099504000     4.5892908000
   43      H      -6.4265591000    -0.2827483000     4.5854868000
   44      H      -8.0664453000    -0.2338079000     3.9043649000
   45      H      -7.0950890000     1.2421586000     3.9174703000
   46      H       3.5193101000     0.1605783000    -0.9746492000
   47      H      -4.2957996000    -2.0396807000     4.2840157000
   48      O       1.6290101000     0.4610697000    -0.7296197000
   49      O       1.2235235000    -1.6103614000     0.1476893000
   50      H       1.2078325000     2.0386236000     1.4625846000
   51      H       2.5297446000    -0.8237323000     3.3183574000
   52      H       0.9082432000    -1.8149451000    -0.7794639000
 ----------------------------------------------------------------
 Nuclear Repulsion Energy =        3160.37007692 hartrees
 There are      114 alpha and      114 beta electrons
 Requested basis set is cc-pVDZ
 There are 246 shells and 530 basis functions

 Total QAlloc Memory Limit  30000 MB
 Mega-Array Size       188 MB
 MEM_STATIC part       192 MB

 -----------------------------------------------------------------------
                STARTING GEOMETRY OPTIMIZER USING LIBOPT3
                by Peter F. McLaughlin, Yu Zhang, Evgeny Epifanovsky
 -----------------------------------------------------------------------

              Initial Energy and Gradient Calculation
   -- Checking Topology for Ill-Behaving Coordinates --

 -------------------------------------------
   Coordinate       |  Removed | Additions 
 -------------------------------------------
	Bonds                     0          0
	Angles                    0          0
	Torsions                  0          0
	Co-Linear Type5s          0          0
	Co-Linear Type6s          0          0
 -------------------------------------------
     Done Checking Topology
 Adding empirical dispersion correction 
 ----------------------------------------------------------------
 Doing -D3(BJ) with
 s6  =   1.00000
 s8  =   1.98890
 a1  =   0.39810
 a2  =   4.42110
 ----------------------------------------------------------------
 -D3 energy without 3body term =     -0.1090187584 hartrees
 ----------------------------------------------------------------
             Standard Nuclear Orientation (Angstroms)
    I     Atom           X                Y                Z
 ----------------------------------------------------------------
    1      C      -7.8827478000    -3.6332468000     1.6494854000
    2      C      -7.7992348000    -2.1176593000     1.4770857000
    3      N      -6.6578879000    -1.6734560000     2.1421281000
    4      O      -8.5956518000    -1.3649460000     0.9021617000
    5      C      -5.8956568000    -2.7351513000     2.7950659000
    6      C      -6.5134672000    -0.2240960000     2.4095118000
    7      C      -6.4983486000    -4.0305245000     2.1912529000
    8      C      -4.3736082000    -2.6723929000     2.4796511000
    9      O      -5.9226457000    -2.6371660000     4.2470022000
   10      H      -5.8428081000    -4.3349721000     1.3736113000
   11      H      -6.5283745000    -4.8084579000     2.9544890000
   12      H      -8.6813557000    -3.8432406000     2.3704937000
   13      H      -8.1296422000    -4.1158213000     0.7023956000
   14      C      -5.0737620000     0.2173909000     2.0913202000
   15      O      -4.4628622000    -0.2550324000     1.1095536000
   16      N      -4.5371083000     1.1614536000     2.9066511000
   17      C      -7.0484582000     0.1541965000     3.8035846000
   18      H      -5.0421875000     1.5110158000     3.7135687000
   19      C      -3.1494082000     1.6022536000     2.7032548000
   20      C      -2.2271717000     0.8187564000     3.6544901000
   21      O      -0.8044000000     1.2102300000     3.4294606000
   22      C      -0.2066937000     0.7009410000     2.3105075000
   23      C       1.2122929000     1.2001910000     2.1686168000
   24      O      -0.7744415000    -0.0350558000     1.5013054000
   25      C       2.1295552000     0.0918682000     1.6057004000
   26      C       1.6025931000    -0.3229726000     0.2312358000
   27      O       2.1540124000    -1.0835886000     2.4330533000
   28      C       3.5468519000     0.7060918000     1.4006809000
   29      C       4.5029552000    -0.2477114000     0.7018855000
   30      O       5.4151303000    -0.8605003000     1.2430247000
   31      O       4.2804456000    -0.4036962000    -0.6487234000
   32      H      -3.0640870000     2.6770582000     2.8736272000
   33      H      -2.8834756000     1.3511488000     1.6763158000
   34      H      -2.3544203000    -0.2511311000     3.4851034000
   35      H      -2.4116878000     1.0738728000     4.6977195000
   36      H       1.5845025000     1.5484760000     3.1336380000
   37      H       3.9600083000     0.9437432000     2.3828636000
   38      H       3.4471341000     1.6231585000     0.8150446000
   39      O      -3.6534636000    -2.1288298000     3.5054834000
   40      O      -3.8600675000    -3.1137193000     1.4634290000
   41      H      -7.1600338000     0.2331528000     1.6492179000
   42      H      -6.8531058000    -2.7099504000     4.5892908000
   43      H      -6.4265591000    -0.2827483000     4.5854868000
   44      H      -8.0664453000    -0.2338079000     3.9043649000
   45      H      -7.0950890000     1.2421586000     3.9174703000
   46      H       3.5193101000     0.1605783000    -0.9746492000
   47      H      -4.2957996000    -2.0396807000     4.2840157000
   48      O       1.6290101000     0.4610697000    -0.7296197000
   49      O       1.2235235000    -1.6103614000     0.1476893000
   50      H       1.2078325000     2.0386236000     1.4625846000
   51      H       2.5297446000    -0.8237323000     3.3183574000
   52      H       0.9082432000    -1.8149451000    -0.7794639000
 ----------------------------------------------------------------
 Nuclear Repulsion Energy =        3160.37007692 hartrees
 There are      114 alpha and      114 beta electrons
 Using C-PCM dielectric factor f(eps) = (eps-1)/eps = 0.987243
 Static dielectric constant eps = 78.39
 Discretize the solute cavity surface with Lebedev spheres
	Using 110 Lebedev grid points for each H atom
	Using 194 Lebedev grid points for other atoms
	Atomic van der Waals radii (Bondi set) will be scaled by 1.20
 Using smooth SwiG surface discretization
 Remove points where switching function is < 1.0e-08
 Keep 3258 surface tesserae and discard 4982 interior tesserae
 Molecular Surface Area = 438.860 Angst**2

 Requested basis set is cc-pVDZ
 There are 246 shells and 530 basis functions
 A cutoff of  1.0D-12 yielded  16797 shell pairs
 There are     75355 function pairs (     83470 Cartesian)
 Smallest overlap matrix eigenvalue = 1.38E-03

 Scale SEOQF with 1.000000e-02/1.000000e-01/1.000000e-01

 Standard Electronic Orientation quadrupole field applied
 Nucleus-field energy     =    -0.0000000654 hartrees
 Guess from superposition of atomic densities
 Warning:  Energy on first SCF cycle will be non-variational
 SAD guess density has 228.000000 electrons

 -----------------------------------------------------------------------
  General SCF calculation program by
  Eric Jon Sundstrom, Paul Horn, Yuezhi Mao, Dmitri Zuev, Alec White,
  David Stuck, Shaama M.S., Shane Yost, Joonho Lee, David Small,
  Daniel Levine, Susi Lehtola, Hugh Burton, Evgeny Epifanovsky,
  Bang C. Huynh
 -----------------------------------------------------------------------
 Exchange:     0.2000 Hartree-Fock + 0.0800 Slater + 0.7200 B88
 Correlation:  0.1900 VWN1RPA + 0.8100 LYP
 Using SG-1 standard quadrature grid
 Dispersion:   Grimme D3
 using 16 threads for integral computing
 -------------------------------------------------------
 OpenMP Integral computing Module                
 Release: version 1.0, May 2013, Q-Chem Inc. Pittsburgh 
 -------------------------------------------------------
 C-PCM solvent model [f = (eps-1)/eps], solve by matrix inversion
 A restricted SCF calculation will be
 performed using DIIS
 SCF converges when DIIS error is below 1.0e-08
 ---------------------------------------
  Cycle       Energy         DIIS error
 ---------------------------------------
    1   -1641.1099308702      3.33e-02  
    2   -1634.8059718968      4.90e-03  
    3   -1633.5626346788      8.45e-03  
    4   -1635.3938238662      1.54e-03  
    5   -1635.4621687118      4.00e-04  
    6   -1635.4657356488      1.63e-04  
    7   -1635.4665028566      3.97e-05  
    8   -1635.4665402056      1.83e-05  
    9   -1635.4665486284      5.13e-06  
   10   -1635.4665493585      1.15e-06  
   11   -1635.4665493879      5.50e-07  
   12   -1635.4665493962      9.08e-08  
   13   -1635.4665493966      4.97e-08  
   14   -1635.4665493967      1.80e-08  
   15   -1635.4665493967      5.35e-09  Convergence criterion met
 ---------------------------------------
 SCF time:   CPU 1778.15s  wall 155.00s 

************** Final PCM Free Energy Summary **************
 G_electrostatic  =      -0.08648583 hartree =     -54.27067841 kcal/mol
 G_cavitation     =       0.00000000 hartree =       0.00000000 kcal/mol
 G_dispersion     =       0.00000000 hartree =       0.00000000 kcal/mol
 G_repulsion      =       0.00000000 hartree =       0.00000000 kcal/mol
 --------------------------------------------------
 Non-electrostatic Free Energy =       0.00000000 hartree =       0.00000000 kcal/mol
 Total                         =      -0.08648583 hartree =     -54.27067841 kcal/mol
 --------------------------------------------------
 SCF Energy (H0 + V/2)                       =   -1635.46654940 
 Solute Internal Energy (H0)                 =   -1635.38006357 
 Total Free Energy (H0 + V/2 + non-elec)     =   -1635.46654940 hartree
                                             = -1026270.75425967 kcal/mol
***********************************************************

 SCF   energy = -1635.46654940
 Total energy = -1635.46654940
 
 --------------------------------------------------------------
 
                    Orbital Energies (a.u.)
 --------------------------------------------------------------
 
 Alpha MOs
 -- Occupied --
-19.2016 -19.1936 -19.1884 -19.1827 -19.1760 -19.1591 -19.1499 -19.1446
-19.1433 -19.1380 -19.1262 -19.1140 -14.3744 -14.3646 -10.3422 -10.3314
-10.3303 -10.3291 -10.3060 -10.3009 -10.2962 -10.2842 -10.2437 -10.2420
-10.2243 -10.2139 -10.2127 -10.2007 -10.1995 -10.1861  -1.1148  -1.1040
 -1.0992  -1.0898  -1.0540  -1.0403  -1.0345  -1.0342  -1.0270  -1.0208
 -1.0185  -1.0130  -0.9471  -0.9272  -0.8240  -0.8213  -0.7779  -0.7571
 -0.7410  -0.7362  -0.6989  -0.6703  -0.6525  -0.6378  -0.6161  -0.6025
 -0.5954  -0.5925  -0.5866  -0.5654  -0.5515  -0.5384  -0.5373  -0.5309
 -0.5058  -0.5039  -0.4998  -0.4893  -0.4868  -0.4802  -0.4780  -0.4713
 -0.4683  -0.4616  -0.4552  -0.4516  -0.4499  -0.4490  -0.4432  -0.4362
 -0.4305  -0.4253  -0.4219  -0.4169  -0.4117  -0.4041  -0.4016  -0.3999
 -0.3952  -0.3919  -0.3865  -0.3850  -0.3785  -0.3759  -0.3713  -0.3707
 -0.3609  -0.3568  -0.3522  -0.3448  -0.3334  -0.3248  -0.3188  -0.3141
 -0.3114  -0.2971  -0.2944  -0.2932  -0.2881  -0.2787  -0.2706  -0.2634
 -0.2615  -0.2595
 -- Virtual --
 -0.0237  -0.0171  -0.0167   0.0013   0.0056   0.0115   0.0398   0.0493
  0.0644   0.0651   0.0827   0.0872   0.0923   0.0943   0.1005   0.1026
  0.1101   0.1130   0.1219   0.1222   0.1365   0.1399   0.1444   0.1466
  0.1509   0.1581   0.1600   0.1673   0.1697   0.1718   0.1755   0.1889
  0.1919   0.1926   0.2035   0.2061   0.2101   0.2129   0.2216   0.2247
  0.2322   0.2405   0.2511   0.2571   0.2659   0.2804   0.2847   0.2954
  0.3022   0.3062   0.3126   0.3243   0.3372   0.3498   0.3597   0.3717
  0.3751   0.3846   0.4053   0.4181   0.4276   0.4355   0.4439   0.4476
  0.4522   0.4577   0.4613   0.4674   0.4754   0.4792   0.4806   0.4885
  0.4909   0.4945   0.5056   0.5118   0.5138   0.5214   0.5271   0.5338
  0.5348   0.5417   0.5482   0.5532   0.5563   0.5651   0.5705   0.5773
  0.5806   0.5839   0.5917   0.5945   0.5979   0.6006   0.6074   0.6101
  0.6125   0.6153   0.6193   0.6260   0.6304   0.6339   0.6370   0.6378
  0.6429   0.6456   0.6503   0.6526   0.6583   0.6644   0.6653   0.6732
  0.6776   0.6839   0.6842   0.6880   0.6893   0.6994   0.7059   0.7211
  0.7245   0.7269   0.7430   0.7568   0.7665   0.7698   0.7805   0.7967
  0.8068   0.8209   0.8221   0.8316   0.8420   0.8492   0.8705   0.8770
  0.8855   0.8938   0.9033   0.9105   0.9193   0.9254   0.9335   0.9394
  0.9412   0.9566   0.9651   0.9758   0.9887   0.9918   0.9961   1.0064
  1.0132   1.0239   1.0277   1.0426   1.0428   1.0510   1.0561   1.0667
  1.0690   1.0754   1.0834   1.0903   1.0923   1.0957   1.0983   1.1075
  1.1115   1.1178   1.1194   1.1267   1.1330   1.1439   1.1448   1.1636
  1.1727   1.1804   1.1865   1.1945   1.1989   1.2054   1.2129   1.2264
  1.2305   1.2473   1.2554   1.2663   1.2751   1.2786   1.2861   1.2924
  1.2986   1.3073   1.3124   1.3185   1.3230   1.3301   1.3357   1.3438
  1.3539   1.3566   1.3624   1.3691   1.3911   1.3917   1.3976   1.4067
  1.4123   1.4227   1.4278   1.4514   1.4683   1.4858   1.4943   1.4974
  1.5047   1.5084   1.5118   1.5185   1.5237   1.5401   1.5477   1.5570
  1.5621   1.5680   1.5735   1.5901   1.5913   1.5970   1.6008   1.6032
  1.6047   1.6158   1.6184   1.6212   1.6342   1.6463   1.6484   1.6515
  1.6599   1.6676   1.6704   1.6721   1.6783   1.6845   1.6863   1.6897
  1.6961   1.7010   1.7101   1.7153   1.7166   1.7198   1.7292   1.7386
  1.7397   1.7486   1.7611   1.7658   1.7709   1.7775   1.7833   1.7914
  1.7957   1.7984   1.8079   1.8147   1.8227   1.8243   1.8382   1.8398
  1.8571   1.8615   1.8785   1.8870   1.8945   1.9063   1.9123   1.9190
  1.9332   1.9396   1.9480   1.9565   1.9673   1.9717   1.9836   1.9866
  1.9960   1.9969   2.0095   2.0192   2.0294   2.0397   2.0522   2.0573
  2.0584   2.0723   2.0787   2.0884   2.0941   2.1097   2.1119   2.1199
  2.1279   2.1323   2.1472   2.1597   2.1669   2.1855   2.1912   2.2082
  2.2130   2.2155   2.2337   2.2400   2.2519   2.2619   2.2746   2.2779
  2.2832   2.2873   2.2892   2.3024   2.3125   2.3358   2.3473   2.3605
  2.3796   2.4102   2.4226   2.4310   2.4378   2.4399   2.4579   2.4632
  2.4680   2.4798   2.4871   2.4978   2.5155   2.5175   2.5272   2.5336
  2.5417   2.5567   2.5593   2.5778   2.5963   2.6025   2.6292   2.6335
  2.6391   2.6577   2.6666   2.6800   2.6823   2.6925   2.6957   2.7013
  2.7170   2.7248   2.7335   2.7606   2.7896   2.8059   2.8197   2.8236
  2.8354   2.8633   2.8699   2.8757   2.8875   2.8955   2.9060   2.9075
  2.9143   2.9392   2.9564   2.9701   2.9832   2.9865   3.0193   3.0762
  3.0913   3.0969   3.1112   3.1202   3.1273   3.1299   3.1417   3.1633
  3.1644   3.2028   3.2826   3.2850   3.2956   3.3160   3.3314   3.3348
  3.3397   3.3525   3.3877   3.4120   3.4498   3.4526   3.4596   3.4693
  3.4850   3.5094   3.5139   3.6427   3.6568   3.6889   3.6968   3.7039
 --------------------------------------------------------------
 
          Ground-State Mulliken Net Atomic Charges

     Atom                 Charge (a.u.)
  ----------------------------------------
      1 C                     0.009087
      2 C                     0.169560
      3 N                    -0.226681
      4 O                    -0.326842
      5 C                     0.037427
      6 C                     0.013855
      7 C                     0.087857
      8 C                     0.265076
      9 O                    -0.291830
     10 H                     0.037579
     11 H                     0.036713
     12 H                     0.066386
     13 H                     0.048314
     14 C                     0.178321
     15 O                    -0.350587
     16 N                    -0.150695
     17 C                     0.017551
     18 H                     0.126376
     19 C                     0.094043
     20 C                     0.145902
     21 O                    -0.297210
     22 C                     0.224321
     23 C                     0.120987
     24 O                    -0.295912
     25 C                    -0.101171
     26 C                     0.252723
     27 O                    -0.296415
     28 C                     0.098327
     29 C                     0.149775
     30 O                    -0.277102
     31 O                    -0.209514
     32 H                     0.040804
     33 H                     0.029872
     34 H                     0.041246
     35 H                     0.042771
     36 H                     0.054078
     37 H                     0.049211
     38 H                     0.062455
     39 O                    -0.199279
     40 O                    -0.265675
     41 H                     0.043499
     42 H                     0.211183
     43 H                     0.037861
     44 H                     0.038451
     45 H                     0.046848
     46 H                     0.191339
     47 H                     0.213260
     48 O                    -0.323246
     49 O                    -0.157684
     50 H                     0.075871
     51 H                     0.198739
     52 H                     0.212174
  ----------------------------------------
  Sum of atomic charges =     0.000000

 -----------------------------------------------------------------
                    Cartesian Multipole Moments
 -----------------------------------------------------------------
    Charge (ESU x 10^10)
                 0.0000
    Dipole Moment (Debye)
         X      -8.6309      Y       5.1877      Z      12.3943
       Tot      15.9695
    Quadrupole Moments (Debye-Ang)
        XX    -163.7465     XY      29.9149     YY    -154.6256
        XZ     -68.3664     YZ       4.4999     ZZ    -109.0515
    Octopole Moments (Debye-Ang^2)
       XXX     803.0858    XXY      40.5790    XYY     244.5643
       YYY     341.9669    XXZ     135.5684    XYZ     103.1933
       YYZ    -278.7903    XZZ     104.7111    YZZ      97.9678
       ZZZ    -743.1531
    Hexadecapole Moments (Debye-Ang^3)
      XXXX  -24921.0656   XXXY    -600.6454   XXYY   -3339.0439
      XYYY   -1888.3289   YYYY   -3092.4678   XXXZ     227.0308
      XXYZ    -474.0381   XYYZ     694.5300   YYYZ     613.0731
      XXZZ   -2785.7009   XYZZ    -420.4232   YYZZ   -1263.9819
      XZZZ    2393.4738   YZZZ     570.6471   ZZZZ   -4611.1290
 -----------------------------------------------------------------
 Calculating analytic gradient of the SCF energy
 Gradient of SCF Energy
            1           2           3           4           5           6
    1  -0.0063186  -0.0047905   0.0064109  -0.0073501   0.0048179   0.0000083
    2  -0.0066616  -0.0004407  -0.0005097   0.0105907   0.0019391   0.0051811
    3  -0.0069104  -0.0016298   0.0000007  -0.0090132  -0.0073796  -0.0091367
            7           8           9          10          11          12
    1   0.0102053  -0.0019072   0.0457141  -0.0009239  -0.0014131  -0.0030424
    2  -0.0063783  -0.0095926   0.0055119   0.0024618  -0.0028336  -0.0022657
    3  -0.0052067  -0.0224798   0.0030704   0.0014794   0.0038557   0.0060500
           13          14          15          16          17          18
    1   0.0010239   0.0002284   0.0079222  -0.0019392  -0.0034420  -0.0082178
    2   0.0002378  -0.0084665  -0.0055141  -0.0045851   0.0020319   0.0096921
    3  -0.0000297  -0.0051275  -0.0054317  -0.0058549   0.0028450   0.0171731
           19          20          21          22          23          24
    1   0.0065448  -0.0111938   0.0083456   0.0143732   0.0012738  -0.0062678
    2   0.0046105  -0.0155258   0.0133207  -0.0065112   0.0085228  -0.0089837
    3  -0.0137626   0.0064768   0.0130620  -0.0123394  -0.0014840  -0.0089037
           25          26          27          28          29          30
    1  -0.0037951   0.0051950  -0.0116352  -0.0008704   0.0108707   0.0010541
    2  -0.0001674   0.0028204  -0.0213146   0.0069729  -0.0055726  -0.0017622
    3  -0.0047436   0.0174658  -0.0204745  -0.0044193   0.0138202   0.0001000
           31          32          33          34          35          36
    1   0.0010467   0.0011596  -0.0012691  -0.0026926  -0.0024427   0.0010948
    2  -0.0056409   0.0042365  -0.0011441   0.0040839   0.0020907   0.0010878
    3  -0.0027207   0.0013678   0.0053949   0.0004799   0.0054317   0.0054097
           37          38          39          40          41          42
    1   0.0011671  -0.0011617   0.0181206  -0.0027311  -0.0018026  -0.0396839
    2  -0.0000796   0.0023099   0.0045497   0.0022696  -0.0011142  -0.0030847
    3   0.0027058  -0.0013981  -0.0087625   0.0003223   0.0009884   0.0178707
           43          44          45          46          47          48
    1   0.0064577  -0.0075478  -0.0000652  -0.0114041  -0.0171298   0.0011470
    2  -0.0057248  -0.0032933   0.0093399   0.0096903   0.0042834   0.0117660
    3   0.0067096   0.0002853   0.0010214  -0.0098855   0.0264180  -0.0137991
           49          50          51          52
    1   0.0016578   0.0013114   0.0100162  -0.0061297
    2  -0.0022002   0.0018690   0.0070365  -0.0091397
    3   0.0138618  -0.0030160   0.0259564  -0.0157138
 Max gradient component =       4.571E-02
 RMS gradient           =       9.419E-03
 Computing fast CPCM-SWIG gradient
 Updating gradient with PCM contributions...
 -- total gradient after adding PCM contribution --
---------------------------------------------------
  Atom         X              Y              Z     
---------------------------------------------------
   1      -0.009005      -0.007253      -0.001380
   2       0.003269      -0.008695       0.000343
   3       0.004960      -0.002355      -0.000333
   4      -0.013664       0.015265      -0.010034
   5       0.003677      -0.000171      -0.003447
   6      -0.003328       0.008428      -0.003829
   7       0.006560      -0.009654      -0.001336
   8      -0.016170       0.000864      -0.002463
   9       0.022337       0.005929       0.007482
  10      -0.001459       0.002268       0.001981
  11      -0.000398       0.003528      -0.002538
  12       0.003470      -0.000239      -0.001398
  13       0.001931       0.001862       0.003344
  14      -0.006875       0.002139       0.012460
  15       0.013460      -0.009710      -0.018300
  16      -0.009867      -0.000328       0.007792
  17      -0.002129       0.002540       0.009034
  18       0.000263       0.001864       0.001056
  19       0.005589       0.010578      -0.009399
  20      -0.013300      -0.011236       0.013185
  21       0.007109       0.012709       0.012177
  22       0.023661       0.004573      -0.000013
  23       0.003086       0.011261       0.000953
  24      -0.012378      -0.016154      -0.018807
  25      -0.001854       0.006538      -0.004673
  26       0.006490       0.004559       0.024771
  27      -0.008244      -0.018569      -0.011045
  28      -0.000141       0.011333      -0.001517
  29      -0.008774       0.007454       0.009428
  30       0.019967      -0.012644       0.012082
  31       0.002158      -0.007030      -0.010402
  32       0.000568      -0.004431      -0.000669
  33      -0.000483      -0.001246       0.003530
  34      -0.002538       0.003659       0.000123
  35      -0.000180      -0.000862      -0.004424
  36      -0.002578      -0.001782      -0.003164
  37      -0.001300      -0.001363      -0.003794
  38      -0.000544      -0.003317       0.001807
  39       0.015150       0.007907       0.003326
  40       0.009364      -0.010941      -0.023105
  41      -0.000589      -0.002075       0.001857
  42      -0.017282      -0.001590       0.009366
  43      -0.002081      -0.000145      -0.004142
  44       0.003397       0.001245      -0.000804
  45      -0.000035      -0.003755      -0.000437
  46      -0.013774       0.009468      -0.010312
  47      -0.012483       0.001308       0.018425
  48       0.003652       0.017499      -0.020316
  49       0.000105      -0.010633       0.014042
  50       0.001035      -0.003095       0.000821
  51       0.007629       0.003560       0.019388
  52      -0.007433      -0.009064      -0.016694
---------------------------------------------------
 Number of fixed atoms: 0
 Gradient time:  CPU 255.50 s  wall 32.60 s

 *****************************************************
             Starting BFGS Algorithm
 *****************************************************
            LIBOPT3 RUN PARAMETERS

  Geometry Optimization Coordinates :
	Delocalized Natural Internal Coordinates

  Step Length Selection Method :
	Eigenvector Following Algorithm

  Step Length Limiter :
	Root-Mean-Square of Gradient

  Convergence Criteria :
	Max Gradient Component    	3.00000000e-04
	Max Displacement Component	1.20000000e-03
	Absolute Energy Difference	1.00000000e-06

  Initial Hessian :
	Approximate Hessian - Model Internal Coordinate

  Type of Verification :
	Verify with final updated Hessian
 *****************************************************

	OPTIMIZATION CYCLE:	1

 Scaling Magnitude of Eigenvalues
 	Minimum: -25.00000000	 Maximum: 25.00000000
 150 Hessian Eigenvalues to form next step
   0.00200000   0.00200000   0.00324327   0.00338225   0.00383773
   0.00398905   0.00400319   0.00438915   0.00494695   0.00529530
   0.00636385   0.00645531   0.00654482   0.00773306   0.00794621
   0.00830524   0.00874003   0.00921583   0.01021351   0.01066630
   0.01079196   0.01082043   0.01109300   0.01268429   0.01859867
   0.02001089   0.02012139   0.02120839   0.02296910   0.03392069
   0.03577585   0.03670096   0.04136213   0.04370008   0.04572981
   0.04959692   0.05046937   0.05233039   0.05255319   0.05448691
   0.05487166   0.05520173   0.05548478   0.05592587   0.05618301
   0.05884966   0.05946863   0.06016821   0.06866370   0.06971935
   0.06996351   0.07149794   0.07828493   0.08271955   0.08441900
   0.08808585   0.09089258   0.09241492   0.10282104   0.11234352
   0.12395947   0.12620978   0.12768330   0.13449215   0.13629322
   0.15903649   0.15940198   0.16000000   0.16000000   0.16000000
   0.16000000   0.16000000   0.16000000   0.16000000   0.16000000
   0.17111358   0.18462412   0.19090347   0.19988883   0.22000755
   0.22011248   0.22032736   0.22063102   0.22106298   0.23079910
   0.23736568   0.24942684   0.24965158   0.24973706   0.24987059
   0.24988975   0.24999923   0.25000000   0.25000000   0.25000000
   0.25000000   0.25000000   0.25000000   0.26732095   0.26964411
   0.27176086   0.27836191   0.28091818   0.28485612   0.28587029
   0.28596528   0.28897448   0.29482819   0.30309966   0.31257277
   0.33154834   0.33926238   0.34102250   0.34115298   0.34252469
   0.34345845   0.34469401   0.34506049   0.34614272   0.34632552
   0.34653750   0.34661585   0.34669240   0.34736262   0.34762321
   0.34785552   0.34797934   0.34846690   0.35489597   0.35720429
   0.37534801   0.39910858   0.44685687   0.45291556   0.45434270
   0.47342195   0.47612018   0.48358316   0.48742657   0.49529896
   0.51557787   0.51721098   0.53364967   0.56178736   0.83570673
   0.86875803   0.88033413   0.90089152   0.93240345   0.94876795


 Minimum Search taking a RFO step
 Searching for Lambda that minimizes along all modes
	Value of Lambda   -0.02701785
	Norm  of Stepsize  0.39395755
	RMS   of Stepsize  0.03216650

	Performing Iterative Coordinate Back-Transformation

	  Starting from Previous Position

	  iter:	0	rms: 2.9378503755e-01	maxdev: 9.3481869676e-01
	  iter:	1	rms: 1.7528220164e-02	maxdev: 5.8108423802e-02
	  iter:	2	rms: 9.2362498554e-05	maxdev: 4.3546998027e-04
	  iter:	3	rms: 5.9873478695e-09	maxdev: 3.9818915223e-08	 Success!

	Finished Iterative Coordinate Back-Transformation
 Adding empirical dispersion correction 
 ----------------------------------------------------------------
 Doing -D3(BJ) with
 s6  =   1.00000e+00
 s8  =   1.98890e+00
 a1  =   3.98100e-01
 a2  =   4.42110e+00
 ----------------------------------------------------------------
 -D3 energy without 3body term =     -1.0712231892e-01 hartrees
 ----------------------------------------------------------------
             Standard Nuclear Orientation (Angstroms)
    I     Atom           X                Y                Z
 ----------------------------------------------------------------
    1      C      -8.1511054084    -3.5009830816     1.6390060441
    2      C      -7.8787472730    -2.0190963185     1.4945732687
    3      N      -6.7274291599    -1.7039337684     2.1925421516
    4      O      -8.5601851734    -1.1920854852     0.9025983700
    5      C      -6.1296411253    -2.8550195724     2.8584107456
    6      C      -6.4663371240    -0.2749931400     2.4637330126
    7      C      -6.8577158098    -4.0620860742     2.2257520837
    8      C      -4.5912139234    -2.9945744506     2.6301790628
    9      O      -6.2674872504    -2.7809161495     4.2829823230
   10      H      -6.2112982668    -4.4547397307     1.4331760425
   11      H      -7.0174689998    -4.8348396279     2.9867974404
   12      H      -9.0046071042    -3.6075062045     2.3265225802
   13      H      -8.4255234456    -3.9447831404     0.6739003763
   14      C      -5.0209789051     0.1155292210     2.1291645851
   15      O      -4.4658518331    -0.3501704488     1.1303238586
   16      N      -4.4444870452     1.0480878199     2.9222346852
   17      C      -6.9871823730     0.1539446023     3.8417178299
   18      H      -4.9292634192     1.3849750963     3.7449647104
   19      C      -3.0833928227     1.5171183221     2.6847577648
   20      C      -2.1043574419     0.7682586912     3.5925251276
   21      O      -0.7306494332     1.2090113886     3.3416390754
   22      C      -0.1546518974     0.6982299483     2.2377287770
   23      C       1.2379081387     1.2467692552     2.0398523127
   24      O      -0.7049946070    -0.0861684034     1.4880634163
   25      C       2.2357825092     0.1878107848     1.5172900872
   26      C       1.7487515549    -0.3460362108     0.1633886668
   27      O       2.3471942706    -0.9093378198     2.4062022859
   28      C       3.6124100728     0.8960904370     1.3359356404
   29      C       4.7108545133     0.0093649287     0.7755310445
   30      O       5.6071441111    -0.4683907128     1.4336976434
   31      O       4.6800321807    -0.2406070307    -0.5563488880
   32      H      -3.0333375727     2.5980268262     2.8701473095
   33      H      -2.8443265199     1.2985533095     1.6391945234
   34      H      -2.1725312832    -0.3119045421     3.4240986814
   35      H      -2.2643431318     1.0108379625     4.6492089089
   36      H       1.6100074948     1.6594999898     2.9861360788
   37      H       3.9390542507     1.2199672619     2.3325786425
   38      H       3.4807815630     1.7783583967     0.6958211497
   39      O      -3.8207233697    -2.5619063727     3.6446435339
   40      O      -4.1052584442    -3.4929539645     1.6448082516
   41      H      -7.0745201991     0.2252949015     1.6951461094
   42      H      -7.2132131524    -2.7394667276     4.5123063115
   43      H      -6.3972449986    -0.2938053294     4.6499215711
   44      H      -8.0319657916    -0.1724438796     3.9437563688
   45      H      -6.9717976237     1.2504697397     3.9315962196
   46      H       3.9150898362     0.2221454262    -0.9619469816
   47      H      -4.4505835414    -2.3610271412     4.3800051093
   48      O       1.6730377410     0.3809202570    -0.8191218460
   49      O       1.5054736763    -1.6488387946     0.1320540460
   50      H       1.1684442445     2.0626775229     1.3049308824
   51      H       2.6853538280    -0.5516865181     3.2471769760
   52      H       1.2180839844    -1.8628064492    -0.7798295707
 ----------------------------------------------------------------
 Nuclear Repulsion Energy =        3121.91385859 hartrees
 There are      114 alpha and      114 beta electrons
 Discretize the solute cavity surface with Lebedev spheres
	Using 110 Lebedev grid points for each H atom
	Using 194 Lebedev grid points for other atoms
	Atomic van der Waals radii (Bondi set) will be scaled by 1.20
 Using smooth SwiG surface discretization
 Remove points where switching function is < 1.0e-08
 Keep 3338 surface tesserae and discard 4902 interior tesserae
 Molecular Surface Area = 445.845 Angst**2

 Applying Cartesian multipole field
    Component          Value
    ---------          -----
     (2,0,0)        1.00000E-12
     (0,2,0)        2.00000E-11
     (0,0,2)       -3.00000E-11
 Nucleus-field energy     =-6.3406646454e-08 hartrees
 Requested basis set is cc-pVDZ
 There are 246 shells and 530 basis functions
 A cutoff of  1.0D-12 yielded  16474 shell pairs
 There are     74024 function pairs (     81992 Cartesian)
 Smallest overlap matrix eigenvalue = 1.34E-03
 Guess MOs from SCF MO coefficient file

 -----------------------------------------------------------------------
  General SCF calculation program by
  Eric Jon Sundstrom, Paul Horn, Yuezhi Mao, Dmitri Zuev, Alec White,
  David Stuck, Shaama M.S., Shane Yost, Joonho Lee, David Small,
  Daniel Levine, Susi Lehtola, Hugh Burton, Evgeny Epifanovsky,
  Bang C. Huynh
 -----------------------------------------------------------------------
 Exchange:     0.2000 Hartree-Fock + 0.0800 Slater + 0.7200 B88
 Correlation:  0.1900 VWN1RPA + 0.8100 LYP
 Using SG-1 standard quadrature grid
 Dispersion:   Grimme D3
 A restricted SCF calculation will be
 performed using Roothaan-Hall, DIIS
 SCF converges when DIIS error is below 1.0e-08
 ---------------------------------------
  Cycle       Energy         DIIS error
 ---------------------------------------
    1   -1635.3676637267      1.39e-03  Roothaan Step
 ---------------------------------------
  Cycle       Energy         DIIS error
 ---------------------------------------
    1   -1635.4752564903      2.48e-04  
    2   -1635.4741193415      3.52e-04  
    3   -1635.4772934285      7.72e-05  
    4   -1635.4774198435      3.54e-05  
    5   -1635.4774538226      8.85e-06  
    6   -1635.4774557724      2.41e-06  
    7   -1635.4774559452      7.30e-07  
    8   -1635.4774559587      3.84e-07  
    9   -1635.4774559625      1.50e-07  
   10   -1635.4774559632      3.10e-08  
   11   -1635.4774559632      1.40e-08  
   12   -1635.4774559632      4.47e-09  Convergence criterion met
 ---------------------------------------
 SCF time:   CPU 1593.67s  wall 138.00s 

************** Final PCM Free Energy Summary **************
 G_electrostatic  =      -0.08456200 hartree =     -53.06345476 kcal/mol
 G_cavitation     =       0.00000000 hartree =       0.00000000 kcal/mol
 G_dispersion     =       0.00000000 hartree =       0.00000000 kcal/mol
 G_repulsion      =       0.00000000 hartree =       0.00000000 kcal/mol
 --------------------------------------------------
 Non-electrostatic Free Energy =       0.00000000 hartree =       0.00000000 kcal/mol
 Total                         =      -0.08456200 hartree =     -53.06345476 kcal/mol
 --------------------------------------------------
 SCF Energy (H0 + V/2)                       =   -1635.47745596 
 Solute Internal Energy (H0)                 =   -1635.39289397 
 Total Free Energy (H0 + V/2 + non-elec)     =   -1635.47745596 hartree
                                             = -1026277.59823344 kcal/mol
***********************************************************

 SCF   energy = -1635.47745596
 Total energy = -1635.47745596
 
 --------------------------------------------------------------
 
                    Orbital Energies (a.u.)
 --------------------------------------------------------------
 
 Alpha MOs
 -- Occupied --
-19.2005 -19.1950 -19.1941 -19.1893 -19.1706 -19.1569 -19.1452 -19.1424
-19.1419 -19.1344 -19.1233 -19.1126 -14.3724 -14.3625 -10.3355 -10.3298
-10.3272 -10.3265 -10.3038 -10.2964 -10.2939 -10.2819 -10.2456 -10.2398
-10.2255 -10.2128 -10.2115 -10.1988 -10.1974 -10.1870  -1.1252  -1.1165
 -1.1136  -1.1051  -1.0626  -1.0462  -1.0451  -1.0405  -1.0306  -1.0297
 -1.0267  -1.0220  -0.9486  -0.9301  -0.8238  -0.8199  -0.7809  -0.7579
 -0.7404  -0.7361  -0.7010  -0.6718  -0.6546  -0.6378  -0.6189  -0.6083
 -0.5996  -0.5924  -0.5878  -0.5668  -0.5549  -0.5442  -0.5405  -0.5305
 -0.5077  -0.5021  -0.5010  -0.4931  -0.4915  -0.4833  -0.4796  -0.4725
 -0.4712  -0.4628  -0.4590  -0.4556  -0.4535  -0.4477  -0.4470  -0.4390
 -0.4324  -0.4273  -0.4243  -0.4211  -0.4128  -0.4089  -0.4049  -0.4019
 -0.3972  -0.3936  -0.3891  -0.3868  -0.3802  -0.3780  -0.3735  -0.3717
 -0.3607  -0.3573  -0.3516  -0.3451  -0.3336  -0.3280  -0.3224  -0.3172
 -0.3088  -0.2964  -0.2938  -0.2916  -0.2879  -0.2781  -0.2697  -0.2637
 -0.2617  -0.2585
 -- Virtual --
 -0.0152  -0.0134  -0.0117   0.0076   0.0103   0.0172   0.0405   0.0518
  0.0647   0.0684   0.0814   0.0865   0.0898   0.0960   0.1001   0.1036
  0.1108   0.1123   0.1206   0.1238   0.1352   0.1385   0.1416   0.1430
  0.1498   0.1605   0.1618   0.1680   0.1730   0.1755   0.1772   0.1843
  0.1921   0.1983   0.2055   0.2120   0.2143   0.2179   0.2255   0.2289
  0.2344   0.2488   0.2579   0.2614   0.2748   0.2883   0.2920   0.3009
  0.3065   0.3123   0.3167   0.3353   0.3455   0.3596   0.3634   0.3751
  0.3795   0.3909   0.4037   0.4196   0.4274   0.4367   0.4433   0.4512
  0.4552   0.4603   0.4647   0.4676   0.4754   0.4787   0.4847   0.4897
  0.4961   0.5036   0.5067   0.5162   0.5188   0.5246   0.5296   0.5354
  0.5372   0.5436   0.5462   0.5530   0.5555   0.5639   0.5735   0.5770
  0.5902   0.5910   0.5945   0.5982   0.6033   0.6094   0.6117   0.6146
  0.6156   0.6208   0.6225   0.6299   0.6305   0.6324   0.6364   0.6375
  0.6400   0.6475   0.6506   0.6553   0.6575   0.6620   0.6665   0.6708
  0.6762   0.6800   0.6838   0.6899   0.6913   0.6956   0.7054   0.7206
  0.7251   0.7277   0.7427   0.7595   0.7624   0.7701   0.7794   0.7968
  0.8098   0.8196   0.8226   0.8275   0.8382   0.8426   0.8698   0.8814
  0.8830   0.8893   0.9019   0.9099   0.9163   0.9209   0.9297   0.9386
  0.9424   0.9556   0.9616   0.9649   0.9786   0.9815   0.9938   1.0051
  1.0109   1.0261   1.0288   1.0387   1.0455   1.0478   1.0522   1.0623
  1.0643   1.0707   1.0762   1.0876   1.0904   1.0935   1.0962   1.1015
  1.1064   1.1138   1.1196   1.1284   1.1315   1.1404   1.1448   1.1566
  1.1633   1.1699   1.1793   1.1846   1.1879   1.1907   1.2090   1.2147
  1.2265   1.2355   1.2468   1.2563   1.2605   1.2740   1.2799   1.2851
  1.2905   1.2974   1.3069   1.3092   1.3138   1.3217   1.3333   1.3366
  1.3451   1.3525   1.3593   1.3626   1.3752   1.3856   1.3936   1.3992
  1.4065   1.4234   1.4295   1.4328   1.4674   1.4748   1.4792   1.4826
  1.4922   1.5044   1.5091   1.5202   1.5262   1.5336   1.5473   1.5597
  1.5600   1.5632   1.5746   1.5866   1.5876   1.5943   1.5983   1.6070
  1.6106   1.6171   1.6190   1.6253   1.6317   1.6456   1.6540   1.6557
  1.6571   1.6630   1.6722   1.6740   1.6756   1.6828   1.6866   1.6929
  1.6961   1.6983   1.7070   1.7127   1.7187   1.7225   1.7334   1.7382
  1.7454   1.7522   1.7647   1.7688   1.7702   1.7793   1.7867   1.7886
  1.7953   1.8074   1.8122   1.8140   1.8260   1.8321   1.8416   1.8451
  1.8569   1.8683   1.8713   1.8892   1.8942   1.9093   1.9150   1.9214
  1.9358   1.9456   1.9579   1.9605   1.9666   1.9734   1.9811   1.9944
  1.9988   2.0038   2.0203   2.0381   2.0462   2.0528   2.0695   2.0711
  2.0770   2.0828   2.0933   2.0949   2.0980   2.1106   2.1162   2.1265
  2.1310   2.1415   2.1435   2.1553   2.1659   2.1761   2.1942   2.2043
  2.2138   2.2195   2.2225   2.2315   2.2471   2.2564   2.2702   2.2767
  2.2807   2.2890   2.2978   2.3052   2.3158   2.3385   2.3485   2.3587
  2.3836   2.3931   2.4150   2.4332   2.4358   2.4420   2.4520   2.4606
  2.4612   2.4741   2.4853   2.4955   2.5112   2.5138   2.5247   2.5290
  2.5385   2.5450   2.5611   2.5788   2.5916   2.6028   2.6276   2.6282
  2.6408   2.6557   2.6727   2.6873   2.6891   2.6956   2.6971   2.7011
  2.7257   2.7297   2.7440   2.7658   2.7889   2.8109   2.8270   2.8339
  2.8517   2.8840   2.8860   2.8935   2.9093   2.9184   2.9260   2.9271
  2.9365   2.9571   2.9667   2.9902   3.0016   3.0082   3.0354   3.0831
  3.1093   3.1144   3.1282   3.1304   3.1448   3.1540   3.1656   3.1715
  3.1835   3.2244   3.2808   3.2927   3.3137   3.3238   3.3446   3.3603
  3.3683   3.3769   3.4103   3.4346   3.4642   3.4696   3.4790   3.4828
  3.4904   3.5222   3.5313   3.6598   3.6954   3.7233   3.7286   3.7309
 --------------------------------------------------------------
 
          Ground-State Mulliken Net Atomic Charges

     Atom                 Charge (a.u.)
  ----------------------------------------
      1 C                     0.008710
      2 C                     0.161178
      3 N                    -0.223270
      4 O                    -0.318150
      5 C                     0.019949
      6 C                     0.003012
      7 C                     0.083404
      8 C                     0.241958
      9 O                    -0.270552
     10 H                     0.036049
     11 H                     0.036177
     12 H                     0.065815
     13 H                     0.048682
     14 C                     0.177362
     15 O                    -0.343359
     16 N                    -0.148642
     17 C                     0.011935
     18 H                     0.122687
     19 C                     0.090641
     20 C                     0.149168
     21 O                    -0.271754
     22 C                     0.213765
     23 C                     0.104500
     24 O                    -0.288666
     25 C                    -0.106602
     26 C                     0.229713
     27 O                    -0.271841
     28 C                     0.077507
     29 C                     0.135383
     30 O                    -0.266894
     31 O                    -0.168105
     32 H                     0.043473
     33 H                     0.030416
     34 H                     0.033705
     35 H                     0.043398
     36 H                     0.052022
     37 H                     0.051919
     38 H                     0.062485
     39 O                    -0.161537
     40 O                    -0.253918
     41 H                     0.047036
     42 H                     0.195311
     43 H                     0.040651
     44 H                     0.039139
     45 H                     0.046592
     46 H                     0.179511
     47 H                     0.194734
     48 O                    -0.304114
     49 O                    -0.133084
     50 H                     0.073469
     51 H                     0.184214
     52 H                     0.194818
  ----------------------------------------
  Sum of atomic charges =     0.000000

 -----------------------------------------------------------------
                    Cartesian Multipole Moments
 -----------------------------------------------------------------
    Charge (ESU x 10^10)
                 0.0000
    Dipole Moment (Debye)
         X      -8.2262      Y       5.6069      Z      11.2477
       Tot      15.0207
    Quadrupole Moments (Debye-Ang)
        XX    -161.9966     XY      27.6621     YY    -157.6325
        XZ     -70.5294     YZ       7.2458     ZZ    -113.1191
    Octopole Moments (Debye-Ang^2)
       XXX     689.2418    XXY       3.2642    XYY     270.3142
       YYY     369.4771    XXZ     111.3389    XYZ      99.9159
       YYZ    -294.8465    XZZ     109.0375    YZZ     110.5614
       ZZZ    -767.1238
    Hexadecapole Moments (Debye-Ang^3)
      XXXX  -25101.2896   XXXY    -505.0913   XXYY   -3513.2319
      XYYY   -2261.7740   YYYY   -3367.7625   XXXZ      52.2394
      XXYZ    -470.4056   XYYZ     786.6549   YYYZ     753.3612
      XXZZ   -3041.1422   XYZZ    -533.3009   YYZZ   -1349.1352
      XZZZ    2536.2049   YZZZ     711.3590   ZZZZ   -4760.4651
 -----------------------------------------------------------------
 Calculating analytic gradient of the SCF energy
 Gradient of SCF Energy
            1           2           3           4           5           6
    1   0.0010588  -0.0073333  -0.0014332   0.0076990   0.0028800   0.0025386
    2  -0.0005754   0.0070705  -0.0011754  -0.0038182   0.0031043   0.0010697
    3  -0.0054893  -0.0007830   0.0019444   0.0015683  -0.0104234  -0.0097588
            7           8           9          10          11          12
    1   0.0047840   0.0104297   0.0201996   0.0012847  -0.0035501  -0.0059219
    2   0.0020520  -0.0144592  -0.0024974   0.0014980  -0.0056943  -0.0010646
    3  -0.0020449  -0.0209252   0.0030472  -0.0000756   0.0057412   0.0073525
           13          14          15          16          17          18
    1  -0.0000078   0.0071999  -0.0056689   0.0036240  -0.0011006  -0.0078664
    2  -0.0016523  -0.0089958   0.0064198  -0.0056791   0.0004645   0.0082079
    3  -0.0031208  -0.0136872   0.0114959  -0.0136629  -0.0032823   0.0156176
           19          20          21          22          23          24
    1   0.0051775  -0.0046534   0.0066374  -0.0071260  -0.0024722   0.0028433
    2  -0.0018424  -0.0100153   0.0049240  -0.0104346  -0.0008849   0.0065060
    3  -0.0073693  -0.0055017   0.0041425  -0.0124929  -0.0014718   0.0079820
           25          26          27          28          29          30
    1  -0.0019609  -0.0032706  -0.0037123   0.0016700   0.0164528  -0.0147680
    2  -0.0061161  -0.0079145  -0.0066796  -0.0018902  -0.0078236   0.0066371
    3  -0.0008980   0.0004417  -0.0109209  -0.0022351   0.0097322  -0.0153409
           31          32          33          34          35          36
    1   0.0092547  -0.0004650  -0.0008288   0.0009465  -0.0003202   0.0029496
    2  -0.0042562   0.0084621  -0.0012546   0.0020405   0.0039485   0.0023882
    3   0.0064548   0.0026090   0.0023124  -0.0001084   0.0093945   0.0087686
           37          38          39          40          41          42
    1   0.0018631  -0.0015144   0.0147783  -0.0097448  -0.0012519  -0.0240507
    2   0.0006843   0.0051651  -0.0046788   0.0121181  -0.0000966   0.0003107
    3   0.0072911  -0.0034100  -0.0135143   0.0240141  -0.0001704   0.0057060
           43          44          45          46          47          48
    1   0.0076730  -0.0109184   0.0008960  -0.0040778  -0.0104764  -0.0034976
    2  -0.0057660  -0.0040143   0.0123115   0.0040313   0.0021356  -0.0012287
    3   0.0091752   0.0003754   0.0008883  -0.0012132   0.0089284  -0.0000315
           49          50          51          52
    1   0.0016694   0.0000812   0.0029720   0.0004281
    2   0.0090911   0.0038370   0.0065368  -0.0005067
    3   0.0006133  -0.0044412   0.0078446  -0.0010681
 Max gradient component =       2.405E-02
 RMS gradient           =       7.295E-03
 Computing fast CPCM-SWIG gradient
 Updating gradient with PCM contributions...
 -- total gradient after adding PCM contribution --
---------------------------------------------------
  Atom         X              Y              Z     
---------------------------------------------------
   1      -0.001997      -0.000496       0.000191
   2      -0.000298      -0.002105       0.001478
   3      -0.003001      -0.002698       0.001370
   4       0.001647       0.001631       0.000231
   5       0.001193       0.001128      -0.006171
   6      -0.000254       0.004421      -0.004340
   7       0.000582      -0.000904       0.001273
   8      -0.002920      -0.002946      -0.002670
   9      -0.001396       0.000753       0.004012
  10       0.000739       0.001346       0.000290
  11      -0.001463       0.000222      -0.000210
  12       0.001010       0.000015       0.000348
  13       0.000940      -0.000279       0.000036
  14       0.000516       0.001822       0.005098
  15       0.000092       0.001937      -0.002533
  16      -0.003941      -0.001288      -0.000372
  17       0.000019       0.000910       0.002755
  18       0.000026       0.000731      -0.000268
  19       0.004274       0.004242      -0.003012
  20      -0.006421      -0.005687       0.001190
  21       0.005335       0.003405       0.002354
  22       0.000913       0.000997      -0.001452
  23      -0.000734       0.002454       0.001254
  24      -0.002442      -0.000385       0.000166
  25      -0.000288       0.000557      -0.001128
  26      -0.002585      -0.006410       0.006877
  27      -0.000714      -0.003006      -0.001996
  28       0.001915       0.003294       0.000433
  29      -0.002021       0.001558       0.003037
  30       0.000954      -0.000115      -0.003098
  31       0.009098      -0.004558      -0.000262
  32      -0.000642      -0.000671       0.000299
  33      -0.000269      -0.001241       0.001050
  34       0.000837       0.001717      -0.000338
  35       0.001561       0.001071      -0.000585
  36      -0.000861      -0.001137       0.000211
  37      -0.000183      -0.001316       0.000064
  38      -0.000649      -0.000904       0.000651
  39       0.012007      -0.001236      -0.002774
  40       0.001150      -0.001477       0.003063
  41      -0.000352      -0.000915       0.000377
  42      -0.002261      -0.000678       0.000166
  43      -0.000252      -0.000402      -0.001502
  44       0.000144      -0.000152      -0.000712
  45       0.000176      -0.000286      -0.000320
  46      -0.004005       0.002436      -0.000400
  47      -0.005906      -0.001411       0.001614
  48      -0.000942       0.003039      -0.005552
  49       0.000922       0.001625      -0.000200
  50       0.000208      -0.001118      -0.000339
  51       0.001010       0.002427       0.001421
  52      -0.000470       0.000080      -0.001075
---------------------------------------------------
 Number of fixed atoms: 0
 Gradient time:  CPU 245.40 s  wall 31.12 s

     Step 1	:
        Energy is -1635.4774559632
                            Maximum         Tolerance       Converged?
         Gradient           1.65205986e-02	3.00000000e-04	false
         Displacement       1.08952715e-01	1.20000000e-03	false
         Energy change      1.09065664e-02	1.00000000e-06	false


	OPTIMIZATION CYCLE:	2

 Scaling Magnitude of Eigenvalues
 	Minimum: -25.00000000	 Maximum: 25.00000000
 150 Hessian Eigenvalues to form next step
   0.00199927   0.00203148   0.00324351   0.00337871   0.00383893
   0.00398905   0.00400392   0.00439175   0.00506826   0.00543793
   0.00636278   0.00647945   0.00652617   0.00773589   0.00800026
   0.00830169   0.00873803   0.00924529   0.01021899   0.01066648
   0.01078302   0.01082584   0.01142218   0.01274712   0.01860298
   0.02000571   0.02007847   0.02135991   0.02296817   0.03391646
   0.03580410   0.03825962   0.04195140   0.04369864   0.04572975
   0.04955185   0.05045861   0.05253598   0.05331237   0.05452486
   0.05511147   0.05547446   0.05555816   0.05586651   0.05661041
   0.05883478   0.05984952   0.06042943   0.06888268   0.06965798
   0.07006411   0.07153086   0.07867697   0.08395357   0.08561873
   0.08816994   0.09090121   0.09238425   0.10282581   0.11242655
   0.12396029   0.12576856   0.12761972   0.13251761   0.13634778
   0.15678021   0.15920428   0.15943167   0.16000000   0.16000000
   0.16000000   0.16000000   0.16000000   0.16000000   0.16436493
   0.17128537   0.18568890   0.19201800   0.20089679   0.21812476
   0.22011294   0.22034988   0.22097833   0.22465285   0.23091079
   0.23887667   0.24651631   0.24943924   0.24973509   0.24978031
   0.24988389   0.24991206   0.24999955   0.25000000   0.25000000
   0.25000000   0.25000000   0.26730735   0.26785416   0.27023404
   0.27385082   0.28047992   0.28193495   0.28510509   0.28586577
   0.28642854   0.29409414   0.30156302   0.30216094   0.31258772
   0.32300061   0.33893538   0.33976007   0.34109389   0.34170504
   0.34287157   0.34385458   0.34521433   0.34620376   0.34641120
   0.34658234   0.34665019   0.34715077   0.34741876   0.34769479
   0.34794212   0.34831919   0.35085125   0.35356324   0.35718224
   0.37390621   0.40205738   0.44349656   0.44902209   0.45292973
   0.46695936   0.47673070   0.48177187   0.48646427   0.49530286
   0.51387979   0.51647634   0.53351524   0.56444702   0.82465481
   0.85413045   0.88010145   0.89744890   0.93151365   0.94834283


 Minimum Search taking a RFO step
 Searching for Lambda that minimizes along all modes
	Value of Lambda   -0.00856392
	Norm  of Stepsize  0.43803978
	RMS   of Stepsize  0.03576580

	Performing Iterative Coordinate Back-Transformation

	  Starting from Previous Position

	  iter:	0	rms: 2.8411485941e-01	maxdev: 1.1393696428e+00
	  iter:	1	rms: 2.5447347840e-02	maxdev: 1.2460132765e-01
	  iter:	2	rms: 2.1686344264e-04	maxdev: 1.4777557856e-03
	  iter:	3	rms: 4.8914739391e-08	maxdev: 4.0670675642e-07	 Success!

	Finished Iterative Coordinate Back-Transformation
 Adding empirical dispersion correction 
 ----------------------------------------------------------------
 Doing -D3(BJ) with
 s6  =   1.00000e+00
 s8  =   1.98890e+00
 a1  =   3.98100e-01
 a2  =   4.42110e+00
 ----------------------------------------------------------------
 -D3 energy without 3body term =     -1.1035345211e-01 hartrees
 ----------------------------------------------------------------
             Standard Nuclear Orientation (Angstroms)
    I     Atom           X                Y                Z
 ----------------------------------------------------------------
    1      C      -7.9465878782    -3.5962626881     1.7011074665
    2      C      -7.8934280045    -2.0891516247     1.6155795094
    3      N      -6.7402419612    -1.6518296490     2.2344221666
    4      O      -8.7309970441    -1.3543332615     1.1196972086
    5      C      -5.9455799554    -2.7280568949     2.7902616399
    6      C      -6.5778421198    -0.2248523755     2.5262776719
    7      C      -6.5427810312    -3.9975029655     2.1462213201
    8      C      -4.4390268584    -2.5645335663     2.4406299084
    9      O      -5.9643061269    -2.7367615593     4.2100245495
   10      H      -5.9247362539    -4.2654420547     1.2799715976
   11      H      -6.5176885007    -4.8196660655     2.8743683989
   12      H      -8.7203519039    -3.8471108210     2.4469542926
   13      H      -8.2504482734    -4.0305871192     0.7379654380
   14      C      -5.1735793638     0.2200170568     2.1130666453
   15      O      -4.6559221441    -0.2406942536     1.0992882703
   16      N      -4.5462492511     1.0932220029     2.9310745691
   17      C      -7.0385391278     0.1512389569     3.9379873131
   18      H      -4.9896255308     1.3706650476     3.7975261208
   19      C      -3.1881239532     1.5373179190     2.6864533712
   20      C      -2.2099043318     0.6925128969     3.4978691351
   21      O      -0.8433656849     1.1103831203     3.2655062727
   22      C      -0.2507481128     0.6159518168     2.1729979365
   23      C       1.1466244551     1.1627487987     2.0133222659
   24      O      -0.7688851899    -0.1712350075     1.4132821553
   25      C       2.1569685907     0.1009459584     1.5338055445
   26      C       1.7410518796    -0.4318815393     0.1565549089
   27      O       2.2167312352    -0.9871686351     2.4268567134
   28      C       3.5440923037     0.7843118428     1.4115524356
   29      C       4.6285751411    -0.1340388752     0.8926102864
   30      O       5.4630452096    -0.6518552488     1.5919996132
   31      O       4.6116870302    -0.4078470479    -0.4260771995
   32      H      -3.0999268584     2.5994806784     2.9619635511
   33      H      -2.9860423525     1.4123697586     1.6152666202
   34      H      -2.3082275560    -0.3731427246     3.2470703538
   35      H      -2.3527136117     0.8469431280     4.5763343127
   36      H       1.4964971760     1.5822197695     2.9683187175
   37      H       3.8411122503     1.1086621561     2.4200764452
   38      H       3.4636134811     1.6694475763     0.7615010045
   39      O      -3.7018981363    -1.9472808629     3.3691245812
   40      O      -3.9735665023    -2.8716821455     1.3757933293
   41      H      -7.2515189131     0.2584156167     1.8003691359
   42      H      -6.8764736754    -2.8315017334     4.5102519710
   43      H      -6.3753407979    -0.2595338317     4.7129917003
   44      H      -8.0551522694    -0.2390275251     4.1028585755
   45      H      -7.0868620024     1.2478431325     4.0421396755
   46      H       3.8891035378     0.0803643293    -0.8517383820
   47      H      -4.2626381660    -1.8507036679     4.1617047762
   48      O       1.7234298813     0.2882591513    -0.8227068763
   49      O       1.4850573197    -1.7268350813     0.1192721315
   50      H       1.0975319106     1.9825529350     1.2776661415
   51      H       2.5119509642    -0.6394526798     3.2767060804
   52      H       1.2532355770    -1.9270671437    -0.8026469707
 ----------------------------------------------------------------
 Nuclear Repulsion Energy =        3172.73133767 hartrees
 There are      114 alpha and      114 beta electrons
 Discretize the solute cavity surface with Lebedev spheres
	Using 110 Lebedev grid points for each H atom
	Using 194 Lebedev grid points for other atoms
	Atomic van der Waals radii (Bondi set) will be scaled by 1.20
 Using smooth SwiG surface discretization
 Remove points where switching function is < 1.0e-08
 Keep 3264 surface tesserae and discard 4976 interior tesserae
 Molecular Surface Area = 434.700 Angst**2

 Applying Cartesian multipole field
    Component          Value
    ---------          -----
     (2,0,0)        1.00000E-12
     (0,2,0)        2.00000E-11
     (0,0,2)       -3.00000E-11
 Nucleus-field energy     =-6.5691996563e-08 hartrees
 Requested basis set is cc-pVDZ
 There are 246 shells and 530 basis functions
 A cutoff of  1.0D-12 yielded  16793 shell pairs
 There are     75559 function pairs (     83745 Cartesian)
 Smallest overlap matrix eigenvalue = 1.28E-03
 Guess MOs from SCF MO coefficient file

 -----------------------------------------------------------------------
  General SCF calculation program by
  Eric Jon Sundstrom, Paul Horn, Yuezhi Mao, Dmitri Zuev, Alec White,
  David Stuck, Shaama M.S., Shane Yost, Joonho Lee, David Small,
  Daniel Levine, Susi Lehtola, Hugh Burton, Evgeny Epifanovsky,
  Bang C. Huynh
 -----------------------------------------------------------------------
 Exchange:     0.2000 Hartree-Fock + 0.0800 Slater + 0.7200 B88
 Correlation:  0.1900 VWN1RPA + 0.8100 LYP
 Using SG-1 standard quadrature grid
 Dispersion:   Grimme D3
 A restricted SCF calculation will be
 performed using Roothaan-Hall, DIIS
 SCF converges when DIIS error is below 1.0e-08
 ---------------------------------------
  Cycle       Energy         DIIS error
 ---------------------------------------
    1   -1635.3435433258      1.45e-03  Roothaan Step
 ---------------------------------------
  Cycle       Energy         DIIS error
 ---------------------------------------
    1   -1635.4727766142      2.09e-04  
    2   -1635.4731266339      2.50e-04  
    3   -1635.4746164935      8.93e-05  
    4   -1635.4748034319      3.51e-05  
    5   -1635.4748368952      7.99e-06  
    6   -1635.4748386790      2.55e-06  
    7   -1635.4748388681      9.98e-07  
    8   -1635.4748388940      4.47e-07  
    9   -1635.4748388997      1.16e-07  
   10   -1635.4748389000      3.17e-08  
   11   -1635.4748389000      1.23e-08  
   12   -1635.4748389002      4.62e-09  Convergence criterion met
 ---------------------------------------
 SCF time:   CPU 1612.20s  wall 140.00s 

************** Final PCM Free Energy Summary **************
 G_electrostatic  =      -0.08394118 hartree =     -52.67388481 kcal/mol
 G_cavitation     =       0.00000000 hartree =       0.00000000 kcal/mol
 G_dispersion     =       0.00000000 hartree =       0.00000000 kcal/mol
 G_repulsion      =       0.00000000 hartree =       0.00000000 kcal/mol
 --------------------------------------------------
 Non-electrostatic Free Energy =       0.00000000 hartree =       0.00000000 kcal/mol
 Total                         =      -0.08394118 hartree =     -52.67388481 kcal/mol
 --------------------------------------------------
 SCF Energy (H0 + V/2)                       =   -1635.47483890 
 Solute Internal Energy (H0)                 =   -1635.39089772 
 Total Free Energy (H0 + V/2 + non-elec)     =   -1635.47483890 hartree
                                             = -1026275.95600163 kcal/mol
***********************************************************

 SCF   energy = -1635.47483890
 Total energy = -1635.47483890
 
 --------------------------------------------------------------
 
                    Orbital Energies (a.u.)
 --------------------------------------------------------------
 
 Alpha MOs
 -- Occupied --
-19.2005 -19.1942 -19.1924 -19.1889 -19.1685 -19.1555 -19.1458 -19.1402
-19.1365 -19.1330 -19.1223 -19.1102 -14.3704 -14.3600 -10.3346 -10.3252
-10.3247 -10.3245 -10.2998 -10.2950 -10.2908 -10.2797 -10.2390 -10.2378
-10.2242 -10.2106 -10.2098 -10.1980 -10.1972 -10.1881  -1.1307  -1.1213
 -1.1165  -1.1095  -1.0658  -1.0490  -1.0485  -1.0426  -1.0347  -1.0319
 -1.0290  -1.0253  -0.9520  -0.9315  -0.8245  -0.8200  -0.7808  -0.7580
 -0.7408  -0.7356  -0.7015  -0.6728  -0.6556  -0.6410  -0.6222  -0.6151
 -0.6009  -0.5917  -0.5890  -0.5664  -0.5545  -0.5456  -0.5416  -0.5325
 -0.5092  -0.5033  -0.5029  -0.4933  -0.4917  -0.4839  -0.4792  -0.4728
 -0.4721  -0.4651  -0.4601  -0.4576  -0.4563  -0.4481  -0.4456  -0.4381
 -0.4324  -0.4279  -0.4248  -0.4210  -0.4134  -0.4099  -0.4048  -0.4016
 -0.3971  -0.3938  -0.3880  -0.3859  -0.3790  -0.3779  -0.3737  -0.3713
 -0.3610  -0.3567  -0.3449  -0.3433  -0.3352  -0.3260  -0.3232  -0.3156
 -0.3085  -0.2964  -0.2924  -0.2902  -0.2872  -0.2771  -0.2689  -0.2617
 -0.2599  -0.2577
 -- Virtual --
 -0.0125  -0.0105  -0.0085   0.0112   0.0139   0.0197   0.0430   0.0533
  0.0661   0.0703   0.0866   0.0880   0.0941   0.0982   0.0998   0.1061
  0.1115   0.1134   0.1222   0.1253   0.1359   0.1402   0.1448   0.1462
  0.1519   0.1616   0.1644   0.1722   0.1763   0.1785   0.1794   0.1939
  0.1979   0.2061   0.2151   0.2187   0.2193   0.2256   0.2312   0.2319
  0.2413   0.2535   0.2622   0.2667   0.2770   0.2904   0.2964   0.3050
  0.3106   0.3168   0.3234   0.3411   0.3504   0.3637   0.3671   0.3784
  0.3879   0.3953   0.4106   0.4197   0.4285   0.4379   0.4459   0.4556
  0.4569   0.4644   0.4668   0.4728   0.4781   0.4832   0.4858   0.4937
  0.4996   0.5060   0.5139   0.5180   0.5208   0.5293   0.5321   0.5356
  0.5380   0.5462   0.5570   0.5590   0.5611   0.5745   0.5795   0.5840
  0.5935   0.5959   0.5989   0.6014   0.6092   0.6113   0.6142   0.6181
  0.6189   0.6255   0.6283   0.6318   0.6329   0.6342   0.6393   0.6448
  0.6459   0.6488   0.6534   0.6546   0.6585   0.6655   0.6679   0.6741
  0.6783   0.6793   0.6852   0.6895   0.6931   0.7006   0.7121   0.7239
  0.7246   0.7279   0.7442   0.7583   0.7678   0.7705   0.7830   0.8031
  0.8098   0.8194   0.8269   0.8308   0.8415   0.8520   0.8703   0.8788
  0.8865   0.8934   0.8983   0.9075   0.9154   0.9242   0.9244   0.9419
  0.9480   0.9601   0.9632   0.9651   0.9813   0.9958   1.0014   1.0035
  1.0120   1.0260   1.0303   1.0402   1.0521   1.0527   1.0605   1.0657
  1.0764   1.0797   1.0876   1.0892   1.0931   1.0981   1.1071   1.1085
  1.1139   1.1183   1.1279   1.1334   1.1373   1.1388   1.1565   1.1652
  1.1718   1.1771   1.1847   1.1898   1.1948   1.2020   1.2113   1.2240
  1.2398   1.2454   1.2554   1.2722   1.2794   1.2838   1.2919   1.2973
  1.3075   1.3087   1.3155   1.3194   1.3274   1.3374   1.3453   1.3470
  1.3573   1.3606   1.3704   1.3712   1.3791   1.3957   1.4037   1.4119
  1.4182   1.4274   1.4353   1.4432   1.4684   1.4753   1.4837   1.4916
  1.5083   1.5126   1.5156   1.5257   1.5338   1.5527   1.5570   1.5596
  1.5683   1.5713   1.5821   1.5935   1.5990   1.6040   1.6066   1.6089
  1.6244   1.6251   1.6291   1.6306   1.6449   1.6554   1.6604   1.6660
  1.6682   1.6710   1.6723   1.6801   1.6822   1.6875   1.6937   1.6973
  1.6995   1.7048   1.7128   1.7221   1.7239   1.7276   1.7399   1.7438
  1.7506   1.7532   1.7706   1.7754   1.7826   1.7878   1.7935   1.8022
  1.8033   1.8171   1.8174   1.8247   1.8391   1.8414   1.8538   1.8602
  1.8651   1.8806   1.8931   1.8989   1.9049   1.9157   1.9230   1.9286
  1.9405   1.9532   1.9643   1.9725   1.9765   1.9838   1.9997   2.0002
  2.0084   2.0138   2.0312   2.0419   2.0534   2.0611   2.0777   2.0833
  2.0885   2.0925   2.0988   2.1116   2.1150   2.1216   2.1281   2.1350
  2.1407   2.1464   2.1576   2.1745   2.1803   2.1997   2.2003   2.2151
  2.2220   2.2253   2.2327   2.2374   2.2480   2.2606   2.2714   2.2772
  2.2901   2.2982   2.3028   2.3227   2.3329   2.3480   2.3545   2.3686
  2.3817   2.4131   2.4220   2.4308   2.4380   2.4495   2.4557   2.4575
  2.4659   2.4813   2.4872   2.4983   2.5033   2.5102   2.5289   2.5314
  2.5451   2.5456   2.5662   2.5839   2.5990   2.6051   2.6274   2.6321
  2.6521   2.6606   2.6771   2.6909   2.6976   2.6999   2.7056   2.7230
  2.7270   2.7326   2.7497   2.7732   2.8179   2.8221   2.8367   2.8409
  2.8653   2.8927   2.8953   2.9040   2.9193   2.9343   2.9414   2.9461
  2.9535   2.9683   2.9808   3.0020   3.0181   3.0208   3.0477   3.0967
  3.1236   3.1302   3.1441   3.1567   3.1583   3.1743   3.1773   3.1872
  3.1948   3.2344   3.2917   3.3133   3.3355   3.3502   3.3554   3.3766
  3.3802   3.3931   3.4225   3.4493   3.4770   3.4792   3.4871   3.4961
  3.5159   3.5361   3.5529   3.6700   3.7315   3.7400   3.7458   3.7464
 --------------------------------------------------------------
 
          Ground-State Mulliken Net Atomic Charges

     Atom                 Charge (a.u.)
  ----------------------------------------
      1 C                     0.003937
      2 C                     0.157426
      3 N                    -0.211729
      4 O                    -0.315502
      5 C                     0.013713
      6 C                     0.012608
      7 C                     0.089114
      8 C                     0.242451
      9 O                    -0.257037
     10 H                     0.033605
     11 H                     0.034641
     12 H                     0.065151
     13 H                     0.047745
     14 C                     0.147407
[...]
  2.7396   2.7528   2.7611   2.7806   2.7944   2.8105   2.8155   2.8235
  2.8578   2.8715   2.8837   2.8911   2.9208   2.9328   2.9333   2.9404
  2.9467   2.9666   2.9905   3.0105   3.0131   3.0471   3.0833   3.0863
  3.1048   3.1106   3.1249   3.1277   3.1368   3.1514   3.1605   3.1699
  3.1801   3.2041   3.3029   3.3247   3.3348   3.3456   3.3580   3.3625
  3.3703   3.3756   3.4313   3.4318   3.4436   3.4696   3.4702   3.4869
  3.5005   3.5062   3.5400   3.6768   3.7160   3.7286   3.7392   3.7895
 --------------------------------------------------------------
 
          Ground-State Mulliken Net Atomic Charges

     Atom                 Charge (a.u.)
  ----------------------------------------
      1 C                     0.003926
      2 C                     0.154446
      3 N                    -0.216275
      4 O                    -0.312960
      5 C                     0.035783
      6 C                    -0.000010
      7 C                     0.095753
      8 C                     0.237330
      9 O                    -0.266145
     10 H                     0.036026
     11 H                     0.034932
     12 H                     0.066284
     13 H                     0.048582
     14 C                     0.154077
     15 O                    -0.333523
     16 N                    -0.138622
     17 C                     0.024977
     18 H                     0.122076
     19 C                     0.086336
     20 C                     0.152077
     21 O                    -0.304318
     22 C                     0.205641
     23 C                     0.132271
     24 O                    -0.275016
     25 C                    -0.165372
     26 C                     0.298032
     27 O                    -0.267678
     28 C                     0.079472
     29 C                     0.140315
     30 O                    -0.290725
     31 O                    -0.180684
     32 H                     0.043008
     33 H                     0.029178
     34 H                     0.035952
     35 H                     0.041089
     36 H                     0.077570
     37 H                     0.046380
     38 H                     0.080114
     39 O                    -0.144943
     40 O                    -0.263636
     41 H                     0.031947
     42 H                     0.193523
     43 H                     0.039041
     44 H                     0.042365
     45 H                     0.043369
     46 H                     0.163585
     47 H                     0.193750
     48 O                    -0.292704
     49 O                    -0.138060
     50 H                     0.053420
     51 H                     0.164545
     52 H                     0.203500
  ----------------------------------------
  Sum of atomic charges =     0.000000

 -----------------------------------------------------------------
                    Cartesian Multipole Moments
 -----------------------------------------------------------------
    Charge (ESU x 10^10)
                 0.0000
    Dipole Moment (Debye)
         X      -8.3453      Y      -8.3301      Z       7.2927
       Tot      13.8643
    Quadrupole Moments (Debye-Ang)
        XX    -209.6088     XY      21.5775     YY    -151.1998
        XZ     -90.0595     YZ     -21.8565     ZZ    -129.9720
    Octopole Moments (Debye-Ang^2)
       XXX     941.5108    XXY    -336.8453    XYY     193.6492
       YYY     193.3491    XXZ    -117.0074    XYZ      89.2854
       YYZ    -306.8075    XZZ      25.3342    YZZ      22.6418
       ZZZ    -850.6532
    Hexadecapole Moments (Debye-Ang^3)
      XXXX  -26762.4963   XXXY   -1124.9976   XXYY   -3544.3245
      XYYY   -2534.9660   YYYY   -3194.2159   XXXZ     295.4231
      XXYZ    -921.5641   XYYZ     534.3751   YYYZ     626.9611
      XXZZ   -3437.9800   XYZZ    -568.0112   YYZZ   -1370.2631
      XZZZ    1835.2867   YZZZ     552.4781   ZZZZ   -4905.8583
 -----------------------------------------------------------------
 Calculating analytic gradient of the SCF energy
 Gradient of SCF Energy
            1           2           3           4           5           6
    1   0.0026493  -0.0100514   0.0012436   0.0089073  -0.0003663   0.0010077
    2   0.0025517   0.0107853   0.0016717  -0.0060139   0.0046110  -0.0006680
    3  -0.0055041  -0.0006392   0.0009666   0.0002247  -0.0047310  -0.0075828
            7           8           9          10          11          12
    1   0.0026477  -0.0030684   0.0237187   0.0022778  -0.0006608  -0.0071089
    2   0.0048548   0.0002466  -0.0049501   0.0001646  -0.0101860  -0.0044055
    3  -0.0002768  -0.0084092  -0.0010513  -0.0030042   0.0041819   0.0069085
           13          14          15          16          17          18
    1  -0.0011814  -0.0037026   0.0010896  -0.0006145  -0.0026094   0.0008601
    2  -0.0005603   0.0026535  -0.0045543   0.0046502   0.0028577  -0.0041618
    3  -0.0042837  -0.0232111   0.0176728  -0.0143823  -0.0051764   0.0177808
           19          20          21          22          23          24
    1  -0.0026226  -0.0019602   0.0022305  -0.0092352   0.0006066   0.0036618
    2  -0.0024477   0.0003129   0.0003285  -0.0010684  -0.0032220  -0.0001504
    3  -0.0066331  -0.0077378   0.0005250  -0.0083774   0.0029762   0.0054431
           25          26          27          28          29          30
    1  -0.0007921   0.0019836   0.0077235  -0.0003604   0.0226068  -0.0195866
    2  -0.0000213   0.0057427   0.0018417   0.0011645   0.0157242  -0.0217807
    3   0.0044642   0.0011708  -0.0008880   0.0039061   0.0045793   0.0025839
           31          32          33          34          35          36
    1  -0.0079538   0.0036403  -0.0001115   0.0005118   0.0019678  -0.0001103
    2   0.0033101   0.0059413  -0.0004108   0.0006362  -0.0036731   0.0063519
    3  -0.0081079   0.0066901   0.0007547   0.0010984   0.0083115   0.0003765
           37          38          39          40          41          42
    1  -0.0002439   0.0016811   0.0166170  -0.0010518  -0.0008323  -0.0241217
    2   0.0021071  -0.0039588   0.0010456   0.0015997   0.0003960   0.0004359
    3  -0.0007657  -0.0045555  -0.0079924   0.0011627  -0.0003143   0.0069231
           43          44          45          46          47          48
    1   0.0113718  -0.0114679   0.0012481   0.0040061  -0.0089738   0.0054704
    2  -0.0072325  -0.0051479   0.0109310   0.0033847  -0.0020855  -0.0030932
    3   0.0069998   0.0043316   0.0036954  -0.0007254   0.0139020   0.0074530
           49          50          51          52
    1  -0.0077851   0.0012857  -0.0054336   0.0009915
    2   0.0116422  -0.0011517  -0.0011716  -0.0158278
    3  -0.0089660  -0.0052387   0.0026110   0.0008606
 Max gradient component =       2.412E-02
 RMS gradient           =       7.165E-03
 Computing fast CPCM-SWIG gradient
 Updating gradient with PCM contributions...
 -- total gradient after adding PCM contribution --
---------------------------------------------------
  Atom         X              Y              Z     
---------------------------------------------------
   1       0.000013      -0.000002      -0.000030
   2      -0.000026       0.000021      -0.000001
   3      -0.000000      -0.000006       0.000006
   4       0.000021      -0.000017      -0.000008
   5       0.000009      -0.000011      -0.000014
   6      -0.000015       0.000014      -0.000013
   7       0.000007       0.000007       0.000042
   8       0.000000      -0.000033       0.000019
   9      -0.000008       0.000026       0.000007
  10       0.000004       0.000002       0.000004
  11       0.000005      -0.000007       0.000007
  12       0.000001       0.000003       0.000016
  13       0.000003      -0.000020       0.000010
  14       0.000003      -0.000004      -0.000025
  15      -0.000010      -0.000012      -0.000010
  16      -0.000019       0.000044      -0.000004
  17      -0.000016       0.000006       0.000001
  18       0.000016      -0.000001      -0.000013
  19       0.000003      -0.000033      -0.000022
  20       0.000004       0.000032       0.000014
  21      -0.000025       0.000019       0.000003
  22      -0.000001      -0.000009      -0.000069
  23       0.000019      -0.000032       0.000010
  24       0.000007      -0.000024       0.000034
  25      -0.000067       0.000018       0.000066
  26       0.000065      -0.000025      -0.000010
  27       0.000014       0.000011       0.000005
  28       0.000009      -0.000009      -0.000006
  29       0.000019      -0.000041       0.000005
  30      -0.000001       0.000009      -0.000002
  31      -0.000041       0.000012      -0.000001
  32      -0.000003       0.000016      -0.000010
  33      -0.000005      -0.000001      -0.000010
  34       0.000001      -0.000025      -0.000001
  35      -0.000000      -0.000001      -0.000001
  36      -0.000001      -0.000004      -0.000002
  37       0.000004      -0.000007      -0.000011
  38       0.000003      -0.000008      -0.000003
  39      -0.000015       0.000015       0.000005
  40       0.000010       0.000018      -0.000009
  41      -0.000001      -0.000007      -0.000016
  42       0.000000      -0.000002       0.000004
  43      -0.000009       0.000010       0.000001
  44      -0.000001       0.000009      -0.000011
  45      -0.000003       0.000012      -0.000018
  46       0.000002      -0.000001       0.000016
  47       0.000003       0.000010       0.000015
  48       0.000006       0.000045       0.000018
  49      -0.000002      -0.000018      -0.000004
  50       0.000006      -0.000002       0.000003
  51      -0.000003       0.000006      -0.000002
  52       0.000013      -0.000007       0.000014
---------------------------------------------------
 Number of fixed atoms: 0
 Gradient time:  CPU 219.50 s  wall 29.58 s

     Step 95	:
        Energy is -1635.4920758083
                            Maximum         Tolerance       Converged?
         Gradient           1.69518926e-04	3.00000000e-04	true
         Displacement       1.12478457e-02	1.20000000e-03	false
         Energy change      9.33210686e-07	1.00000000e-06	true

	 Optimization Converged in 95 cycles

 *****************************************************
             End of BFGS Algorithm
 *****************************************************
		----------------------------------
		   Verification of Optimization
		----------------------------------

 Eigenvalues of Hessian in Optimization Verification
   0.00026158   0.00221338   0.00271326   0.00339839   0.00383106
   0.00388880   0.00511636   0.00568328   0.00598870   0.00694479
   0.00747028   0.00807721   0.00841324   0.01044435   0.01209224
   0.01532456   0.01753516   0.01842135   0.02314759   0.02438005
   0.02668302   0.03064520   0.03275942   0.03449032   0.03488932
   0.04104345   0.04235345   0.04537120   0.04754626   0.04816221
   0.04948052   0.05201666   0.05278053   0.05305085   0.05385552
   0.05424578   0.05539111   0.05589032   0.05655880   0.05693488
   0.05785523   0.05936000   0.06013632   0.06377510   0.06735424
   0.06893344   0.07005030   0.07159260   0.07418013   0.08089899
   0.08299593   0.08403578   0.08488158   0.08871471   0.09095923
   0.09376615   0.10021255   0.10783580   0.11211040   0.11471776
   0.12435606   0.13168002   0.14126319   0.14410938   0.14777260
   0.15839396   0.15868681   0.15984721   0.16000985   0.16183228
   0.16434735   0.17094660   0.17595646   0.18834347   0.19255610
   0.19618966   0.20792941   0.20878072   0.21484406   0.22234131
   0.23042756   0.23691158   0.23943875   0.24422939   0.24875967
   0.25158438   0.25749477   0.25782109   0.26514205   0.26630183
   0.26893962   0.27181358   0.27580887   0.27835708   0.28230012
   0.28434479   0.28697341   0.28858730   0.29059388   0.29486111
   0.30325925   0.30484376   0.31372120   0.33289277   0.33926791
   0.34083508   0.34145178   0.34202504   0.34343810   0.34357310
   0.34435424   0.34561320   0.34594980   0.34613357   0.34648580
   0.34681079   0.34691746   0.34763507   0.34785397   0.34845104
   0.34991652   0.35502265   0.36690091   0.37241660   0.38012957
   0.38752125   0.39878098   0.41713791   0.43527062   0.44852700
   0.45096686   0.45609535   0.46066339   0.47697086   0.48549080
   0.49205109   0.51772591   0.52587716   0.54785990   0.55467089
   0.57708889   0.58479653   0.70008341   0.82947311   0.84686002
   0.88049618   0.89782637   0.92029814   0.95492359   1.02740020


 Found a minimum
		---------------------------------
		       End of Verification
		---------------------------------

 Final energy is -1635.492075808285

	******************************
	**  OPTIMIZATION CONVERGED  **
	******************************
 Adding empirical dispersion correction 
 ----------------------------------------------------------------
 Doing -D3(BJ) with
 s6  =   1.00000
 s8  =   1.98890
 a1  =   0.39810
 a2  =   4.42110
 ----------------------------------------------------------------
 -D3 energy without 3body term =     -0.1104192162 hartrees
 ----------------------------------------------------------------
             Standard Nuclear Orientation (Angstroms)
    I     Atom           X                Y                Z
 ----------------------------------------------------------------
    1      C      -8.0064021060    -3.3297682862     1.4199022294
    2      C      -7.9018218645    -1.8514316207     1.7409163006
    3      N      -6.7755274073    -1.6569286375     2.5181898527
    4      O      -8.6795587734    -0.9658844492     1.4159312556
    5      C      -6.0507549184    -2.8858940398     2.8010757870
    6      C      -6.4865800175    -0.3351018297     3.0833879117
    7      C      -6.6246085021    -3.8824333030     1.7669247069
    8      C      -4.5247249729    -2.7019709235     2.6029688412
    9      O      -6.1946464457    -3.3123730715     4.1509874912
   10      H      -5.9776248369    -3.8680644204     0.8809144452
   11      H      -6.6307011346    -4.8919370463     2.1945797283
   12      H      -8.8039788835    -3.7503776879     2.0540943397
   13      H      -8.2969818013    -3.4758423762     0.3717236087
   14      C      -5.2497361576     0.2611176466     2.3816020118
   15      O      -5.2757446241     0.4839131781     1.1713539038
   16      N      -4.1811500887     0.5325872372     3.1680049760
   17      C      -6.4945559727    -0.3063518853     4.6121065288
   18      H      -4.2072362648     0.2729705234     4.1470023073
   19      C      -2.9344231928     1.0513623640     2.6358849893
   20      C      -1.9327129816    -0.0803277018     2.4103201291
   21      O      -0.6541851268     0.4539399824     1.9815775282
   22      C      -0.5054830133     0.7249475596     0.6613121283
   23      C       0.8858552393     1.2345058906     0.3539870879
   24      O      -1.3910900272     0.5914424359    -0.1523057101
   25      C       1.9970994591     0.7502652411     1.3010269720
   26      C       2.0306210895    -0.7871893215     1.4125869408
   27      O       1.8662063450     1.3040001778     2.5995567387
   28      C       3.3653042380     1.2257803348     0.7631286320
   29      C       4.4992669307     1.3434787793     1.7799165312
   30      O       5.2999308150     2.2561997942     1.7147454134
   31      O       4.6332849927     0.4043640424     2.7203146784
   32      H      -2.5164276591     1.7879463534     3.3376756542
   33      H      -3.1587888129     1.5467560334     1.6833297857
   34      H      -2.3035102703    -0.7915109510     1.6627859966
   35      H      -1.7148018101    -0.6093876066     3.3461562769
   36      H       0.8582389459     2.3339123355     0.4234841157
   37      H       3.2468183130     2.2274605646     0.3301225097
   38      H       3.7019411200     0.5606606039    -0.0495121092
   39      O      -3.7887979105    -2.7902877272     3.7123749850
   40      O      -4.0340010272    -2.4883620757     1.5171066028
   41      H      -7.3196140827     0.2806726394     2.7144967755
   42      H      -7.1331552659    -3.2957900249     4.4009536896
   43      H      -5.6857252450    -0.9032023938     5.0561748325
   44      H      -7.4484048812    -0.7081059204     4.9829573207
   45      H      -6.3988293164     0.7329350461     4.9605801865
   46      H       3.8961097558    -0.2603797024     2.6858019848
   47      H      -4.4035126141    -3.0074657551     4.4487274987
   48      O       2.6877277170    -1.3700987624     2.2624675955
   49      O       1.3131578760    -1.4182589089     0.4905701010
   50      H       1.1077565996     0.9738344766    -0.6885785172
   51      H       0.9642075893     1.0923617986     2.9019752172
   52      H       1.4132594833    -2.3838536098     0.6181056124
 ----------------------------------------------------------------
 Nuclear Repulsion Energy =        3167.06925254 hartrees
 There are      114 alpha and      114 beta electrons

Z-matrix Print:
$molecule
0 1
O 
C  1 1.355971
O  2 1.209999 1 123.531112
C  1 1.450481 2 117.263535 3 2.849624 0
H  4 1.096394 1 109.602638 2 38.995807 0
H  4 1.096895 1 104.757771 2 156.555974 0
C  2 1.513248 1 111.461232 3 178.876724 0
H  7 1.097330 2 107.391036 1 152.871755 0
H  7 1.101947 2 107.463875 1 -91.642537 0
C  4 1.528079 1 110.405676 2 -83.651771 0
H  10 1.096867 4 109.900317 1 65.787466 0
H  10 1.099903 4 109.939330 1 -54.474805 0
N  10 1.451416 4 110.640085 1 -175.398734 0
H  13 1.013172 10 117.901881 4 76.346922 0
C  13 1.354253 10 122.448114 4 -96.832808 0
O  15 1.230859 13 123.460095 10 -3.304678 0
C  7 1.538258 2 115.668911 1 27.855575 0
O  17 1.417722 7 111.977734 2 -68.855539 0
H  18 0.974602 17 106.549528 7 54.531832 0
C  17 1.541861 7 111.971760 2 53.894444 0
O  20 1.222240 17 122.517407 7 -168.209824 0
O  20 1.327824 17 114.325435 7 13.308196 0
H  22 0.979111 20 108.845382 17 178.242698 0
C  15 1.542000 13 116.495916 10 177.776973 0
H  24 1.099638 15 103.794652 13 131.325013 0
N  24 1.466344 15 109.340456 13 -119.222040 0
C  26 1.382217 24 120.276191 15 -110.479573 0
O  27 1.222573 26 124.466009 24 3.796928 0
C  26 1.454536 24 126.050270 15 76.401089 0
O  29 1.422973 26 112.789316 24 65.971970 0
H  30 0.971369 29 109.676226 26 48.411629 0
C  27 1.516399 26 108.205551 24 -174.420742 0
H  32 1.097476 27 110.499878 26 -138.087015 0
H  32 1.102380 27 107.462428 26 104.440426 0
C  32 1.528142 27 104.013215 26 -15.237300 0
H  35 1.096368 32 114.617495 27 144.110968 0
H  35 1.097182 32 110.187153 27 -92.136810 0
C  24 1.529010 15 116.868304 13 11.666240 0
H  38 1.098924 24 112.952323 15 -63.017339 0
H  38 1.099438 24 109.566448 15 176.940252 0
H  38 1.100325 24 109.508489 15 58.304822 0
C  17 1.545132 7 109.176533 2 173.724894 0
H  42 1.097678 17 108.819031 7 36.992325 0
H  42 1.102766 17 109.951947 7 -79.920551 0
C  42 1.527607 17 116.699458 7 156.563964 0
O  45 1.215882 42 120.728936 17 -141.763795 0
O  45 1.335757 42 119.268915 17 40.536135 0
H  47 0.993228 45 111.814986 42 -4.540167 0
C  29 1.549788 26 111.439163 24 -51.658837 0
O  49 1.210593 29 122.326461 26 -66.232009 0
O  49 1.334230 29 115.402499 26 113.530698 0
H  51 0.983491 49 107.002645 29 2.798132 0
$end

 -----------------------------------------------------------------------
                  END OF GEOMETRY OPTIMIZER USING LIBOPT3               
 -----------------------------------------------------------------------
 Total job time:  15962.48s(wall), 168463.33s(cpu) 
 Sun Sep  7 10:47:32 2025

        *************************************************************
        *                                                           *
        *  Thank you very much for using Q-Chem.  Have a nice day.  *
        *                                                           *
        *************************************************************


remove work dirs /scratch/cooksy_group/qchem639704.0 -- /scratch/cooksy_group/qchem639704.0
rm -rf /scratch/cooksy_group/qchem639704.0
rm -rf /scratch/cooksy_group/qchem639704
