You are running Q-Chem version: 6.2.0

#
# job setting
#
local host:  itcotck
current dir: /home/cooksy_group/sgardner/kupper
input file:  VF_SRpp_b3lypDBJ_ccpVDZ_PCM_h2o_OPT.in
output file: 
nprocs     : 1
nthreads   : 16
#
# qchem installation setting
#
QC:          /opt/qchem/6.2.0
QCAUX:       /opt/qchem/6.2.0/qcaux
QCPROG:      /opt/qchem/6.2.0/exe/qcprog.exe_s
QCPROG_S:    /opt/qchem/6.2.0/exe/qcprog.exe_s
PARALLEL:    -DSERIAL
QCMPI:       seq
#
# qchem directory setting
#
qcrun:       qchem688272
QCSCRATCH:   /scratch/cooksy_group
QCLOCALSCR:  
QCTMPDIR:    /scratch/cooksy_group
QCFILEPREF:  /scratch/cooksy_group/qchem688272
QCSAVEDIR:   
workdirs:    /scratch/cooksy_group/qchem688272
workdir0:    /scratch/cooksy_group/qchem688272
partmpdirs =  
#
# parallel setting
#
QCRSH:           ssh
QCMPI:           seq
QCMPIRUN:        
QCMACHINEFILE:   /opt/qchem/6.2.0/bin/mpi/machines


#
# env setting
#
exported envs:   QC QCAUX QCSCRATCH QCRUNNAME QCFILEPREF QCPROG QCPROG_S GUIFILE

Running Job 1 of 1 VF_SRpp_b3lypDBJ_ccpVDZ_PCM_h2o_OPT.in
qchem VF_SRpp_b3lypDBJ_ccpVDZ_PCM_h2o_OPT.in_688272.0 /scratch/cooksy_group/qchem688272/ 1
/opt/qchem/6.2.0/exe/qcprog.exe_s VF_SRpp_b3lypDBJ_ccpVDZ_PCM_h2o_OPT.in_688272.0 /scratch/cooksy_group/qchem688272/
                  Welcome to Q-Chem
     A Quantum Leap Into The Future Of Chemistry


 Q-Chem 6.2, Q-Chem, Inc., Pleasanton, CA (2024)

 E. Epifanovsky,  A. T. B. Gilbert,  Xintian Feng,  Joonho Lee,  Yuezhi Mao,  
 N. Mardirossian,  P. Pokhilko,  A. White,  M. Wormit,  M. P. Coons,  
 A. L. Dempwolff,  Zhengting Gan,  D. Hait,  P. R. Horn,  L. D. Jacobson,  
 I. Kaliman,  J. Kussmann,  A. W. Lange,  Ka Un Lao,  D. S. Levine,  Jie Liu,  
 S. C. McKenzie,  A. F. Morrison,  K. D. Nanda,  F. Plasser,  D. R. Rehn,  
 M. L. Vidal,  Zhi-Qiang You,  Ying Zhu,  Huseyin Aksu,  B. Alam,  
 B. Albrecht,  A. Aldossary,  E. Alguire,  J. H. Andersen,  
 J. E. Arias-Martinez,  V. Athavale,  D. Barton,  K. Begam,  A. Behn,  
 N. Bellonzi,  Y. A. Bernard,  E. J. Berquist,  H. Burton,  A. Carreras,  
 K. Carter-Fenk,  Mathew Chow,  Romit Chakraborty,  Chandrima Chakravarty,  
 Junhan Chen,  A. D. Chien,  K. D. Closser,  V. Cofer-Shabica,  L. Cunha,  
 S. Dasgupta,  Jia Deng,  Joseph Dickinson,  M. de Wergifosse,  
 M. Diedenhofen,  Hainam Do,  Wenjie Dou,  S. Ehlert,  Po-Tung Fang,  
 S. Fatehi,  Qingguo Feng,  Jonathan Fetherolf,  T. Friedhoff,  
 Thomas Froitzheim,  Sarai Folkestad,  B. Ganoe,  J. Gayvert,  Qinghui Ge,  
 G. Gidofalvi,  M. Gimferrer,  M. Goldey,  Montgomery Gray,  J. Gomes,  
 C. Gonzalez-Espinoza,  S. Gulania,  A. Gunina,  J. A. Gyamfi,  
 M. W. D. Hanson-Heine,  P. H. P. Harbach,  A. W. Hauser,  M. F. Herbst,  
 M. Hernandez Vera,  M. Hodecker,  Z. C. Holden,  S. Houck,  Xunkun Huang,  
 Kerwin Hui,  B. C. Huynh,  K. Ikeda,  M. Ivanov,  Nayanthara K. Jayadev,  
 Hyunjun Ji,  Zuxin Jin,  Hanjie Jiang,  Subrata Jana,  B. Kaduk,  
 S. Kaehler,  R. Kang,  K. Khistyaev,  Jaehoon Kim,  Yongbin Kim,  
 P. Klunzinger,  Z. Koczor-Benda,  Joong Hoon Koh,  D. Kosenkov,  
 Saikiran Kotaru,  L. Koulias,  T. Kowalczyk,  C. M. Krauter,  K. Kue,  
 A. Kunitsa,  T. Kus,  A. Landau,  K. V. Lawler,  D. Lefrancois,  S. Lehtola,  
 Rain Li,  Shaozhi Li,  Tao E. Li,  Yi-Pei Li,  Jiashu Liang,  M. Liebenthal,  
 Hung-Hsuan Lin,  You-Sheng Lin,  Fenglai Liu,  Kuan-Yu Liu,  Xiao Liu,  
 M. Loipersberger,  A. Luenser,  C. Malbon,  Aniket Mandal,  Manisha,  
 A. Manjanath,  P. Manohar,  E. Mansoor,  S. F. Manzer,  Shan-Ping Mao,  
 A. V. Marenich,  T. Markovich,  S. Mason,  F. Matz,  S. A. Maurer,  
 Samuel May,  Alexandra McIsaac,  P. F. McLaughlin,  M. F. S. J. Menger,  
 J.-M. Mewes,  S. A. Mewes,  P. Morgante,  Mohammad Mostafanejad,  
 Madhubani Mukherjee,  J. W. Mullinax,  Quyen Nguyen,  Avik Kumar Ojha,  
 K. J. Oosterbaan,  Eno Paenurk,  Xiaoliang Pan,  G. Paran,  V. Parravicini,  
 Alexander C. Paul,  Suranjan K. Paul,  F. Pavosevic,  Zheng Pei,  S. Prager,  
 E. I. Proynov,  E. Ramos,  B. Rana,  A. E. Rask,  A. Rettig,  R. M. Richard,  
 F. Rob,  E. Rossomme,  T. Scheele,  M. Scheurer,  M. Schneider,  
 P. E. Schneider,  Tim K. Schramm,  N. Sergueev,  S. M. Sharada,  
 Hengyuan Shen,  W. Skomorowski,  D. W. Small,  C. J. Stein,  
 Alistair J. Sterling,  Yingli Su,  Yu-Chuan Su,  E. J. Sundstrom,  
 J. Talbot,  Zhen Tao,  J. Thirman,  Hung-Yi Tsai,  T. Tsuchimochi,  
 N. M. Tubman,  C. Utku,  S. P. Veccham,  O. Vydrov,  Rahel Weiss,  
 J. Wenzel,  Jonathan Wong,  J. Witte,  H. Wu,  Yanze Wu,  A. Yamada,  
 Chou-Hsun Yang,  Kun Yao,  S. Yeganeh,  S. R. Yost,  Qi Yu,  A. Zech,  
 F. Zeller,  Chongxiao Zhao,  Igor Ying Zhang,  Xing Zhang,  Yu Zhang,  
 D. Zuev,  A. Aspuru-Guzik,  A. T. Bell,  N. A. Besley,  K. B. Bravaya,  
 B. R. Brooks,  D. Casanova,  Jeng-Da Chai,  Hsing-Ta Chen,  S. Coriani,  
 C. J. Cramer,  A. E. DePrince, III,  R. A. DiStasio Jr.,  A. Dreuw,  
 B. D. Dunietz,  T. R. Furlani,  W. A. Goddard III,  S. Grimme,  
 S. Hammes-Schiffer,  T. Head-Gordon,  W. J. Hehre,  Chao-Ping Hsu,  
 T.-C. Jagau,  Yousung Jung,  A. Klamt,  Jing Kong,  D. S. Lambrecht,  
 Xiangyuan Li,  WanZhen Liang,  N. J. Mayhall,  C. W. McCurdy,  J. B. Neaton,  
 T. Neudecker,  C. Ochsenfeld,  J. A. Parkhill,  R. Peverati,  
 V. A. Rassolov,  Haisheng Ren,  Yihan Shao,  L. V. Slipchenko,  
 R. P. Steele,  J. E. Subotnik,  A. J. W. Thom,  A. Tkatchenko,  
 D. G. Truhlar,  T. Van Voorhis,  Fan Wang,  T. A. Wesolowski,  K. B. Whaley,  
 H. L. Woodcock III,  P. M. Zimmerman,  S. Faraji,  P. M. W. Gill,  
 M. Head-Gordon,  J. M. Herbert,  A. I. Krylov

 Contributors to earlier versions of Q-Chem not listed above: 
 R. D. Adamson,  B. Austin,  R. Baer,  J. Baker,  G. J. O. Beran,  
 K. Brandhorst,  S. T. Brown,  E. F. C. Byrd,  Arup K. Chakraborty,  
 G. K. L. Chan,  Chun-Min Chang,  Yunqing Chen,  C.-L. Cheng,  
 Siu Hung Chien,  D. M. Chipman,  D. L. Crittenden,  H. Dachsel,  
 R. J. Doerksen,  A. D. Dutoi,  R. G. Edgar,  J. Fosso-Tande,  
 L. Fusti-Molnar,  D. Ghosh,  A. Ghysels,  A. Golubeva-Zadorozhnaya,  
 J. Gonthier,  M. S. Gordon,  S. R. Gwaltney,  G. Hawkins,  J. E. Herr,  
 A. Heyden,  S. Hirata,  E. G. Hohenstein,  G. Kedziora,  F. J. Keil,  
 C. Kelley,  Jihan Kim,  R. A. King,  R. Z. Khaliullin,  P. P. Korambath,  
 W. Kurlancheek,  A. Laurent,  A. M. Lee,  M. S. Lee,  S. V. Levchenko,  
 Ching Yeh Lin,  D. Liotard,  E. Livshits,  R. C. Lochan,  I. Lotan,  
 L. A. Martinez-Martinez,  P. E. Maslen,  N. Nair,  D. P. O'Neill,  
 D. Neuhauser,  E. Neuscamman,  C. M. Oana,  R. Olivares-Amaya,  R. Olson,  
 T. M. Perrine,  B. Peters,  P. A. Pieniazek,  A. Prociuk,  Y. M. Rhee,  
 J. Ritchie,  M. A. Rohrdanz,  E. Rosta,  N. J. Russ,  H. F. Schaefer III,  
 M. W. Schmidt,  N. E. Schultz,  S. Sharma,  N. Shenvi,  C. D. Sherrill,  
 A. C. Simmonett,  A. Sodt,  T. Stein,  D. Stuck,  K. S. Thanthiriwatte,  
 V. Vanovschi,  L. Vogt,  Tao Wang,  A. Warshel,  M. A. Watson,  
 C. F. Williams,  Q. Wu,  X. Xu,  Jun Yang,  W. Zhang,  Yan Zhao

   Please cite Q-Chem as follows:
  "Software for the frontiers of quantum chemistry:
   An overview of developments in the Q-Chem 5 package"
   J. Chem. Phys. 155, 084801 (2021)
   https://doi.org/10.1063/5.0055522 (open access)

 Q-Chem 6.2.0 for Intel X86 EM64T Linux

 Parts of Q-Chem use Armadillo 9.900.5 (Nocturnal Misbehaviour).
 http://arma.sourceforge.net/

 Q-Chem begins on Tue Sep  9 13:27:59 2025  

 Host: 
0

     Scratch files written to /scratch/cooksy_group/qchem688272//
 May224 |scratch|qcdevops|jenkins|workspace|build_RNUM -1
 Processing $rem in /opt/qchem/6.2.0/config/preferences:
 Processing $rem in /home/cooksy_group/.qchemrc:
 Symmetry turned off for PCM/SM12/SMD calculation

 Checking the input file for inconsistencies... 	...done.

--------------------------------------------------------------
User input:
--------------------------------------------------------------
$molecule
0 1
C   -8.6120749   -2.7939888    1.2872270
C   -8.1519503   -1.4762714    1.9087818
N   -6.9668695   -1.7291151    2.6132142
O   -8.6897329   -0.3689335    1.8499306
C   -6.5050030   -3.0466369    2.5013237
C   -6.2423298   -0.6523506    3.2926861
C   -7.4815288   -3.7973942    1.5902545
O   -5.5053073   -3.4955482    3.0635566
H   -6.9456736   -4.0975033    0.6842253
H   -7.8305779   -4.6980331    2.1004865
H   -9.5591802   -3.0861392    1.7520865
H   -8.7839169   -2.6490201    0.2179511
C   -4.9569935   -0.3442850    2.4947766
O   -4.5899340   -1.0111394    1.5067708
N   -4.2558260    0.7251843    2.9559991
C   -5.9338596   -1.0093802    4.7641189
H   -4.5796931    1.2616713    3.7546263
C   -3.0229202    1.1468684    2.2731232
C   -1.8830579    0.1689302    2.5968442
O   -0.6096865    0.6747156    2.0097240
C   -0.3979828    0.4246903    0.6521388
C    0.9592430    0.9505972    0.2310776
O   -1.2496390   -0.0923203   -0.0544590
C    2.0665725    0.7701830    1.2837666
C    2.2404027   -0.7080642    1.6633097
O    1.8035737    1.5221752    2.4987440
C    3.4124391    1.3091283    0.7394464
C    4.3352823    1.8300966    1.8499791
O    4.8209024    2.9607343    1.8193240
O    4.6478284    0.9685525    2.8465629
H   -2.7635506    2.1528215    2.6048799
H   -3.1869880    1.1377668    1.1931394
H   -2.1104936   -0.8067556    2.1675945
H   -1.6931048    0.1085141    3.6668346
H    0.8588842    2.0289924    0.0570947
H    3.2127338    2.1631773    0.0909060
H    3.9278538    0.5378626    0.1559383
H   -6.9036384    0.2186663    3.2376622
H   -5.3020920   -1.8974448    4.7906273
H   -6.8700028   -1.2149270    5.2913602
H   -5.4290687   -0.1778709    5.2621946
H    4.1218454    0.0915656    2.7790322
O    3.1357688   -1.1176283    2.4204843
O    1.3169790   -1.5265060    1.1216551
H    1.2317840    0.4656600   -0.7068144
H    0.8282573    1.3556452    2.6959367
H    1.4382221   -2.4761662    1.4137668
$end

$rem
BASIS  =  cc-pVDZ
DFT_D  =  D3_BJ
GUI  =  2
JOB_TYPE  =  Optimization
MEM_TOTAL  =  30000
METHOD  =  B3LYP
SCF_CONVERGENCE  =  8
SCF_MAX_CYCLES  =  200
SOLVENT_METHOD  =  PCM
$end

$geom_opt
MAXITER  200
$end

$pcm
THEORY  CPCM
$end

$solvent
DIELECTRIC  78.39
$end


--------------------------------------------------------------
 Adding empirical dispersion correction 
 ----------------------------------------------------------------
 Doing -D3(BJ) with
 s6  =   1.00000
 s8  =   1.98890
 a1  =   0.39810
 a2  =   4.42110
 ----------------------------------------------------------------
 -D3 energy without 3body term =     -0.0930993872 hartrees
 ----------------------------------------------------------------
             Standard Nuclear Orientation (Angstroms)
    I     Atom           X                Y                Z
 ----------------------------------------------------------------
    1      C      -8.6120749000    -2.7939888000     1.2872270000
    2      C      -8.1519503000    -1.4762714000     1.9087818000
    3      N      -6.9668695000    -1.7291151000     2.6132142000
    4      O      -8.6897329000    -0.3689335000     1.8499306000
    5      C      -6.5050030000    -3.0466369000     2.5013237000
    6      C      -6.2423298000    -0.6523506000     3.2926861000
    7      C      -7.4815288000    -3.7973942000     1.5902545000
    8      O      -5.5053073000    -3.4955482000     3.0635566000
    9      H      -6.9456736000    -4.0975033000     0.6842253000
   10      H      -7.8305779000    -4.6980331000     2.1004865000
   11      H      -9.5591802000    -3.0861392000     1.7520865000
   12      H      -8.7839169000    -2.6490201000     0.2179511000
   13      C      -4.9569935000    -0.3442850000     2.4947766000
   14      O      -4.5899340000    -1.0111394000     1.5067708000
   15      N      -4.2558260000     0.7251843000     2.9559991000
   16      C      -5.9338596000    -1.0093802000     4.7641189000
   17      H      -4.5796931000     1.2616713000     3.7546263000
   18      C      -3.0229202000     1.1468684000     2.2731232000
   19      C      -1.8830579000     0.1689302000     2.5968442000
   20      O      -0.6096865000     0.6747156000     2.0097240000
   21      C      -0.3979828000     0.4246903000     0.6521388000
   22      C       0.9592430000     0.9505972000     0.2310776000
   23      O      -1.2496390000    -0.0923203000    -0.0544590000
   24      C       2.0665725000     0.7701830000     1.2837666000
   25      C       2.2404027000    -0.7080642000     1.6633097000
   26      O       1.8035737000     1.5221752000     2.4987440000
   27      C       3.4124391000     1.3091283000     0.7394464000
   28      C       4.3352823000     1.8300966000     1.8499791000
   29      O       4.8209024000     2.9607343000     1.8193240000
   30      O       4.6478284000     0.9685525000     2.8465629000
   31      H      -2.7635506000     2.1528215000     2.6048799000
   32      H      -3.1869880000     1.1377668000     1.1931394000
   33      H      -2.1104936000    -0.8067556000     2.1675945000
   34      H      -1.6931048000     0.1085141000     3.6668346000
   35      H       0.8588842000     2.0289924000     0.0570947000
   36      H       3.2127338000     2.1631773000     0.0909060000
   37      H       3.9278538000     0.5378626000     0.1559383000
   38      H      -6.9036384000     0.2186663000     3.2376622000
   39      H      -5.3020920000    -1.8974448000     4.7906273000
   40      H      -6.8700028000    -1.2149270000     5.2913602000
   41      H      -5.4290687000    -0.1778709000     5.2621946000
   42      H       4.1218454000     0.0915656000     2.7790322000
   43      O       3.1357688000    -1.1176283000     2.4204843000
   44      O       1.3169790000    -1.5265060000     1.1216551000
   45      H       1.2317840000     0.4656600000    -0.7068144000
   46      H       0.8282573000     1.3556452000     2.6959367000
   47      H       1.4382221000    -2.4761662000     1.4137668000
 ----------------------------------------------------------------
 Nuclear Repulsion Energy =        2540.61373471 hartrees
 There are      102 alpha and      102 beta electrons
 Requested basis set is cc-pVDZ
 There are 222 shells and 478 basis functions

 Total QAlloc Memory Limit  30000 MB
 Mega-Array Size       188 MB
 MEM_STATIC part       192 MB

 -----------------------------------------------------------------------
                STARTING GEOMETRY OPTIMIZER USING LIBOPT3
                by Peter F. McLaughlin, Yu Zhang, Evgeny Epifanovsky
 -----------------------------------------------------------------------

              Initial Energy and Gradient Calculation
   -- Checking Topology for Ill-Behaving Coordinates --

 -------------------------------------------
   Coordinate       |  Removed | Additions 
 -------------------------------------------
	Bonds                     0          0
	Angles                    0          0
	Torsions                  0          0
	Co-Linear Type5s          0          0
	Co-Linear Type6s          0          0
 -------------------------------------------
     Done Checking Topology
 Adding empirical dispersion correction 
 ----------------------------------------------------------------
 Doing -D3(BJ) with
 s6  =   1.00000
 s8  =   1.98890
 a1  =   0.39810
 a2  =   4.42110
 ----------------------------------------------------------------
 -D3 energy without 3body term =     -0.0930993872 hartrees
 ----------------------------------------------------------------
             Standard Nuclear Orientation (Angstroms)
    I     Atom           X                Y                Z
 ----------------------------------------------------------------
    1      C      -8.6120749000    -2.7939888000     1.2872270000
    2      C      -8.1519503000    -1.4762714000     1.9087818000
    3      N      -6.9668695000    -1.7291151000     2.6132142000
    4      O      -8.6897329000    -0.3689335000     1.8499306000
    5      C      -6.5050030000    -3.0466369000     2.5013237000
    6      C      -6.2423298000    -0.6523506000     3.2926861000
    7      C      -7.4815288000    -3.7973942000     1.5902545000
    8      O      -5.5053073000    -3.4955482000     3.0635566000
    9      H      -6.9456736000    -4.0975033000     0.6842253000
   10      H      -7.8305779000    -4.6980331000     2.1004865000
   11      H      -9.5591802000    -3.0861392000     1.7520865000
   12      H      -8.7839169000    -2.6490201000     0.2179511000
   13      C      -4.9569935000    -0.3442850000     2.4947766000
   14      O      -4.5899340000    -1.0111394000     1.5067708000
   15      N      -4.2558260000     0.7251843000     2.9559991000
   16      C      -5.9338596000    -1.0093802000     4.7641189000
   17      H      -4.5796931000     1.2616713000     3.7546263000
   18      C      -3.0229202000     1.1468684000     2.2731232000
   19      C      -1.8830579000     0.1689302000     2.5968442000
   20      O      -0.6096865000     0.6747156000     2.0097240000
   21      C      -0.3979828000     0.4246903000     0.6521388000
   22      C       0.9592430000     0.9505972000     0.2310776000
   23      O      -1.2496390000    -0.0923203000    -0.0544590000
   24      C       2.0665725000     0.7701830000     1.2837666000
   25      C       2.2404027000    -0.7080642000     1.6633097000
   26      O       1.8035737000     1.5221752000     2.4987440000
   27      C       3.4124391000     1.3091283000     0.7394464000
   28      C       4.3352823000     1.8300966000     1.8499791000
   29      O       4.8209024000     2.9607343000     1.8193240000
   30      O       4.6478284000     0.9685525000     2.8465629000
   31      H      -2.7635506000     2.1528215000     2.6048799000
   32      H      -3.1869880000     1.1377668000     1.1931394000
   33      H      -2.1104936000    -0.8067556000     2.1675945000
   34      H      -1.6931048000     0.1085141000     3.6668346000
   35      H       0.8588842000     2.0289924000     0.0570947000
   36      H       3.2127338000     2.1631773000     0.0909060000
   37      H       3.9278538000     0.5378626000     0.1559383000
   38      H      -6.9036384000     0.2186663000     3.2376622000
   39      H      -5.3020920000    -1.8974448000     4.7906273000
   40      H      -6.8700028000    -1.2149270000     5.2913602000
   41      H      -5.4290687000    -0.1778709000     5.2621946000
   42      H       4.1218454000     0.0915656000     2.7790322000
   43      O       3.1357688000    -1.1176283000     2.4204843000
   44      O       1.3169790000    -1.5265060000     1.1216551000
   45      H       1.2317840000     0.4656600000    -0.7068144000
   46      H       0.8282573000     1.3556452000     2.6959367000
   47      H       1.4382221000    -2.4761662000     1.4137668000
 ----------------------------------------------------------------
 Nuclear Repulsion Energy =        2540.61373471 hartrees
 There are      102 alpha and      102 beta electrons
 Using C-PCM dielectric factor f(eps) = (eps-1)/eps = 0.987243
 Static dielectric constant eps = 78.39
 Discretize the solute cavity surface with Lebedev spheres
	Using 110 Lebedev grid points for each H atom
	Using 194 Lebedev grid points for other atoms
	Atomic van der Waals radii (Bondi set) will be scaled by 1.20
 Using smooth SwiG surface discretization
 Remove points where switching function is < 1.0e-08
 Keep 3012 surface tesserae and discard 4426 interior tesserae
 Molecular Surface Area = 411.589 Angst**2

 Requested basis set is cc-pVDZ
 There are 222 shells and 478 basis functions
 A cutoff of  1.0D-12 yielded  13600 shell pairs
 There are     61012 function pairs (     67631 Cartesian)
 Smallest overlap matrix eigenvalue = 1.65E-03

 Scale SEOQF with 1.000000e-02/1.000000e-01/1.000000e-02

 Standard Electronic Orientation quadrupole field applied
 Nucleus-field energy     =     0.0000000494 hartrees
 Guess from superposition of atomic densities
 Warning:  Energy on first SCF cycle will be non-variational
 SAD guess density has 204.000000 electrons

 -----------------------------------------------------------------------
  General SCF calculation program by
  Eric Jon Sundstrom, Paul Horn, Yuezhi Mao, Dmitri Zuev, Alec White,
  David Stuck, Shaama M.S., Shane Yost, Joonho Lee, David Small,
  Daniel Levine, Susi Lehtola, Hugh Burton, Evgeny Epifanovsky,
  Bang C. Huynh
 -----------------------------------------------------------------------
 Exchange:     0.2000 Hartree-Fock + 0.0800 Slater + 0.7200 B88
 Correlation:  0.1900 VWN1RPA + 0.8100 LYP
 Using SG-1 standard quadrature grid
 Dispersion:   Grimme D3
 using 16 threads for integral computing
 -------------------------------------------------------
 OpenMP Integral computing Module                
 Release: version 1.0, May 2013, Q-Chem Inc. Pittsburgh 
 -------------------------------------------------------
 C-PCM solvent model [f = (eps-1)/eps], solve by matrix inversion
 A restricted SCF calculation will be
 performed using DIIS
 SCF converges when DIIS error is below 1.0e-08
 ---------------------------------------
  Cycle       Energy         DIIS error
 ---------------------------------------
    1   -1450.8206605754      3.51e-02  
    2   -1445.1017293497      5.12e-03  
    3   -1443.9175438838      9.03e-03  
    4   -1445.6234787178      1.66e-03  
    5   -1445.6890052700      4.12e-04  
    6   -1445.6920330095      1.73e-04  
    7   -1445.6927193111      4.41e-05  
    8   -1445.6927574828      1.95e-05  
    9   -1445.6927654709      5.00e-06  
   10   -1445.6927660397      1.07e-06  
   11   -1445.6927660581      6.12e-07  
   12   -1445.6927660662      1.40e-07  
   13   -1445.6927660666      7.44e-08  
   14   -1445.6927660667      1.35e-08  
   15   -1445.6927660667      6.92e-09  Convergence criterion met
 ---------------------------------------
 SCF time:   CPU 1683.18s  wall 143.00s 

************** Final PCM Free Energy Summary **************
 G_electrostatic  =      -0.06550711 hartree =     -41.10633445 kcal/mol
 G_cavitation     =       0.00000000 hartree =       0.00000000 kcal/mol
 G_dispersion     =       0.00000000 hartree =       0.00000000 kcal/mol
 G_repulsion      =       0.00000000 hartree =       0.00000000 kcal/mol
 --------------------------------------------------
 Non-electrostatic Free Energy =       0.00000000 hartree =       0.00000000 kcal/mol
 Total                         =      -0.06550711 hartree =     -41.10633445 kcal/mol
 --------------------------------------------------
 SCF Energy (H0 + V/2)                       =   -1445.69276607 
 Solute Internal Energy (H0)                 =   -1445.62725895 
 Total Free Energy (H0 + V/2 + non-elec)     =   -1445.69276607 hartree
                                             = -907185.90729127 kcal/mol
***********************************************************

 SCF   energy = -1445.69276607
 Total energy = -1445.69276607
 
 --------------------------------------------------------------
 
                    Orbital Energies (a.u.)
 --------------------------------------------------------------
 
 Alpha MOs
 -- Occupied --
-19.2178 -19.2016 -19.1700 -19.1631 -19.1521 -19.1510 -19.1385 -19.1345
-19.1245 -19.1185 -14.3865 -14.3639 -10.3529 -10.3385 -10.3201 -10.3120
-10.3107 -10.2971 -10.2853 -10.2494 -10.2447 -10.2285 -10.2172 -10.2098
-10.2057 -10.2044 -10.1866  -1.1291  -1.1046  -1.0792  -1.0658  -1.0441
 -1.0438  -1.0362  -1.0321  -1.0196  -0.9984  -0.9570  -0.9272  -0.8265
 -0.8243  -0.7810  -0.7601  -0.7396  -0.6986  -0.6937  -0.6726  -0.6542
 -0.6211  -0.6193  -0.5978  -0.5918  -0.5741  -0.5592  -0.5468  -0.5316
 -0.5252  -0.5117  -0.5087  -0.4949  -0.4932  -0.4861  -0.4820  -0.4752
 -0.4624  -0.4610  -0.4574  -0.4545  -0.4443  -0.4400  -0.4366  -0.4357
 -0.4312  -0.4233  -0.4220  -0.4156  -0.4123  -0.4041  -0.4003  -0.3995
 -0.3953  -0.3879  -0.3859  -0.3812  -0.3726  -0.3703  -0.3662  -0.3582
 -0.3480  -0.3441  -0.3410  -0.3242  -0.3190  -0.3053  -0.2964  -0.2863
 -0.2855  -0.2850  -0.2696  -0.2656  -0.2622  -0.2603
 -- Virtual --
 -0.0357  -0.0257  -0.0134   0.0073   0.0092   0.0196   0.0492   0.0542
  0.0685   0.0706   0.0904   0.0981   0.1012   0.1063   0.1103   0.1129
  0.1175   0.1250   0.1284   0.1317   0.1362   0.1418   0.1476   0.1539
  0.1568   0.1597   0.1647   0.1754   0.1827   0.1859   0.1948   0.1983
  0.2022   0.2062   0.2163   0.2224   0.2296   0.2346   0.2389   0.2445
  0.2709   0.2833   0.2969   0.3040   0.3078   0.3171   0.3217   0.3363
  0.3399   0.3421   0.3553   0.3712   0.3962   0.4006   0.4131   0.4189
  0.4313   0.4406   0.4483   0.4525   0.4530   0.4580   0.4601   0.4668
  0.4769   0.4817   0.4877   0.4921   0.4953   0.5005   0.5153   0.5198
  0.5231   0.5316   0.5332   0.5386   0.5427   0.5512   0.5541   0.5630
  0.5727   0.5798   0.5832   0.5872   0.5923   0.5949   0.5977   0.6065
  0.6093   0.6181   0.6198   0.6251   0.6291   0.6354   0.6378   0.6387
  0.6447   0.6474   0.6529   0.6554   0.6577   0.6587   0.6606   0.6641
  0.6693   0.6760   0.6835   0.6878   0.6998   0.7026   0.7162   0.7178
  0.7253   0.7312   0.7422   0.7595   0.7681   0.7825   0.7938   0.8135
  0.8271   0.8310   0.8371   0.8518   0.8533   0.8642   0.8734   0.8850
  0.8979   0.9073   0.9126   0.9255   0.9304   0.9357   0.9364   0.9525
  0.9843   0.9879   1.0026   1.0140   1.0157   1.0339   1.0358   1.0420
  1.0449   1.0550   1.0651   1.0717   1.0770   1.0787   1.0841   1.0847
  1.0974   1.1015   1.1100   1.1163   1.1276   1.1346   1.1430   1.1456
  1.1579   1.1618   1.1743   1.1788   1.1931   1.1996   1.2091   1.2164
  1.2213   1.2421   1.2455   1.2476   1.2569   1.2688   1.2849   1.2934
  1.2988   1.3074   1.3195   1.3298   1.3383   1.3519   1.3603   1.3637
  1.3710   1.3865   1.3945   1.4085   1.4197   1.4243   1.4369   1.4449
  1.4627   1.4692   1.4706   1.4774   1.4907   1.4951   1.5073   1.5114
  1.5128   1.5250   1.5299   1.5418   1.5470   1.5631   1.5666   1.5707
  1.5822   1.5841   1.5947   1.5985   1.6064   1.6148   1.6242   1.6303
  1.6339   1.6445   1.6499   1.6557   1.6585   1.6644   1.6700   1.6750
  1.6792   1.6859   1.6893   1.6976   1.7089   1.7179   1.7255   1.7347
  1.7405   1.7440   1.7565   1.7690   1.7707   1.7731   1.7840   1.7935
  1.7977   1.8033   1.8087   1.8134   1.8192   1.8229   1.8296   1.8373
  1.8449   1.8656   1.8699   1.8755   1.8889   1.9035   1.9065   1.9122
  1.9262   1.9352   1.9371   1.9542   1.9663   1.9687   1.9790   1.9817
  1.9890   1.9932   2.0028   2.0105   2.0241   2.0350   2.0421   2.0588
  2.0696   2.0750   2.0851   2.0932   2.1071   2.1166   2.1328   2.1339
  2.1522   2.1544   2.1608   2.1737   2.1972   2.2148   2.2269   2.2318
  2.2368   2.2567   2.2617   2.2805   2.2808   2.2895   2.3000   2.3062
  2.3311   2.3433   2.3676   2.3747   2.3851   2.4119   2.4149   2.4239
  2.4304   2.4488   2.4575   2.4615   2.4668   2.4719   2.4849   2.5035
  2.5099   2.5197   2.5329   2.5467   2.5718   2.5791   2.5836   2.5951
  2.6102   2.6223   2.6363   2.6424   2.6697   2.6843   2.6889   2.6976
  2.7112   2.7270   2.7419   2.7555   2.7680   2.7957   2.8026   2.8056
  2.8307   2.8475   2.8588   2.8882   2.8944   2.9069   2.9449   2.9517
  2.9579   2.9817   3.0297   3.0433   3.0504   3.0813   3.0900   3.1020
  3.1061   3.1147   3.1205   3.1224   3.1526   3.1697   3.2866   3.3074
  3.3181   3.3201   3.3524   3.3672   3.4068   3.4149   3.4201   3.4437
  3.4489   3.4552   3.4605   3.4733   3.4946   3.6496   3.7215   3.7867
 --------------------------------------------------------------
 
          Ground-State Mulliken Net Atomic Charges

     Atom                 Charge (a.u.)
  ----------------------------------------
      1 C                     0.010507
      2 C                     0.161738
      3 N                    -0.203188
      4 O                    -0.297572
      5 C                     0.168279
      6 C                    -0.005336
      7 C                     0.012108
      8 O                    -0.298261
      9 H                     0.071325
     10 H                     0.061380
     11 H                     0.073580
     12 H                     0.064445
     13 C                     0.202652
     14 O                    -0.343176
     15 N                    -0.147450
     16 C                     0.036968
     17 H                     0.135357
     18 C                     0.101101
     19 C                     0.175833
     20 O                    -0.354270
     21 C                     0.226164
     22 C                     0.147703
     23 O                    -0.272799
     24 C                    -0.176608
     25 C                     0.348604
     26 O                    -0.304292
     27 C                     0.100132
     28 C                     0.148497
     29 O                    -0.303279
     30 O                    -0.232533
     31 H                     0.042307
     32 H                     0.032562
     33 H                     0.043140
     34 H                     0.048752
     35 H                     0.079393
     36 H                     0.037433
     37 H                     0.071838
     38 H                     0.041109
     39 H                     0.034296
     40 H                     0.037676
     41 H                     0.035041
     42 H                     0.190528
     43 O                    -0.305060
     44 O                    -0.164957
     45 H                     0.055293
     46 H                     0.188388
     47 H                     0.224650
  ----------------------------------------
  Sum of atomic charges =     0.000000

 -----------------------------------------------------------------
                    Cartesian Multipole Moments
 -----------------------------------------------------------------
    Charge (ESU x 10^10)
                -0.0000
    Dipole Moment (Debye)
         X      -8.2641      Y      -3.9643      Z       0.3743
       Tot       9.1734
    Quadrupole Moments (Debye-Ang)
        XX    -176.2593     XY     -16.9268     YY    -157.2850
        XZ     -48.8397     YZ      -3.5343     ZZ    -145.3767
    Octopole Moments (Debye-Ang^2)
       XXX     626.8444    XXY    -285.3531    XYY     177.4279
       YYY      96.9422    XXZ    -338.6706    XYZ     -89.8716
       YYZ    -349.8660    XZZ     138.7666    YZZ      70.9239
       ZZZ    -867.5792
    Hexadecapole Moments (Debye-Ang^3)
      XXXX  -22838.9850   XXXY   -1017.1642   XXYY   -3766.5923
      XYYY   -2810.8574   YYYY   -2934.9698   XXXZ    1386.1376
      XXYZ    -278.0266   XYYZ     687.1329   YYYZ     432.1788
      XXZZ   -4316.5974   XYZZ   -1205.2570   YYZZ   -1440.6397
      XZZZ    1906.4973   YZZZ     564.1011   ZZZZ   -4638.4638
 -----------------------------------------------------------------
 Calculating analytic gradient of the SCF energy
 Gradient of SCF Energy
            1           2           3           4           5           6
    1  -0.0065650   0.0011040   0.0009330  -0.0089772   0.0001852  -0.0035838
    2  -0.0010735  -0.0037674  -0.0035113   0.0197743   0.0022010   0.0067677
    3  -0.0052560   0.0006893  -0.0010087  -0.0013665   0.0010435  -0.0030596
            7           8           9          10          11          12
    1   0.0021660   0.0142239  -0.0007437  -0.0025328  -0.0027710   0.0010606
    2  -0.0078465  -0.0046403   0.0005599  -0.0014330  -0.0027656  -0.0006227
    3  -0.0040664   0.0068590  -0.0019393   0.0017070   0.0026753  -0.0024076
           13          14          15          16          17          18
    1  -0.0053769   0.0079700  -0.0028161   0.0037468  -0.0046859   0.0007199
    2  -0.0061829  -0.0101801  -0.0061652  -0.0077893   0.0130415   0.0056166
    3   0.0021358  -0.0127619  -0.0027289   0.0055930   0.0173427  -0.0132354
           19          20          21          22          23          24
    1  -0.0079419   0.0185773   0.0187370   0.0044103  -0.0229851  -0.0013389
    2  -0.0154130   0.0142507  -0.0002221  -0.0006642  -0.0121063  -0.0075233
    3   0.0072589   0.0148300  -0.0108822  -0.0028022  -0.0129610  -0.0046472
           25          26          27          28          29          30
    1  -0.0029464   0.0264081   0.0011064   0.0050579  -0.0034205  -0.0013757
    2   0.0322937   0.0155991  -0.0028947   0.0214916  -0.0059851  -0.0002054
    3  -0.0150340   0.0115579  -0.0065444  -0.0004653   0.0004782   0.0002063
           31          32          33          34          35          36
    1   0.0024805   0.0013783  -0.0027431  -0.0003281   0.0004132   0.0001241
    2   0.0066895  -0.0011791   0.0021443   0.0001446   0.0059297   0.0004369
    3   0.0028944   0.0005858   0.0000367   0.0068257   0.0000141   0.0016399
           37          38          39          40          41          42
    1   0.0006860  -0.0026762  -0.0012018  -0.0029063   0.0033807  -0.0034623
    2  -0.0032139   0.0028092  -0.0000183  -0.0003335   0.0057763  -0.0128176
    3  -0.0020337   0.0004525  -0.0021466   0.0011208   0.0032008   0.0029147
           43          44          45          46          47
    1   0.0284079  -0.0238359   0.0014944  -0.0282893  -0.0012676
    2  -0.0086811   0.0158172  -0.0024804  -0.0044518  -0.0371762
    3   0.0246170  -0.0204635  -0.0031485   0.0053536   0.0069259
 Max gradient component =       3.718E-02
 RMS gradient           =       9.699E-03
 Computing fast CPCM-SWIG gradient
 Updating gradient with PCM contributions...
 -- total gradient after adding PCM contribution --
---------------------------------------------------
  Atom         X              Y              Z     
---------------------------------------------------
   1      -0.008880      -0.002597      -0.005143
   2       0.003584      -0.010224      -0.000735
   3      -0.000254      -0.002852      -0.000757
   4      -0.009986       0.022145      -0.000315
   5      -0.008194       0.005380      -0.005634
   6      -0.005146       0.010222      -0.000629
   7      -0.000009      -0.010259      -0.004363
   8       0.020082      -0.007892       0.012202
   9      -0.002715       0.001622       0.002224
  10       0.000144       0.003823      -0.001669
  11       0.003663      -0.000221      -0.001052
  12       0.001673      -0.001237       0.003649
  13      -0.005940       0.003506       0.011636
  14       0.008864      -0.013277      -0.017978
  15      -0.007022       0.002490       0.009891
  16       0.003613      -0.002507       0.009115
  17       0.000548       0.001556       0.001214
  18       0.002282       0.010388      -0.009165
  19      -0.007873      -0.014240       0.013960
  20       0.015651       0.012291       0.013579
  21       0.023247       0.002347      -0.008325
  22       0.003064       0.001587      -0.007180
  23      -0.020804      -0.010590      -0.012650
  24      -0.000902      -0.008112      -0.010339
  25      -0.005464       0.024667      -0.013740
  26       0.019095       0.013216       0.011095
  27       0.002123      -0.003986      -0.009805
  28      -0.011674      -0.002174      -0.006653
  29       0.009759       0.023719      -0.001869
  30       0.006395      -0.002257       0.009625
  31      -0.000211      -0.004185      -0.001433
  32       0.001772      -0.001340       0.003397
  33      -0.002075       0.004415       0.000783
  34      -0.002093       0.000244      -0.004444
  35       0.001145      -0.002618       0.001407
  36       0.000754      -0.002394       0.003293
  37      -0.002277       0.001757       0.001639
  38       0.000732      -0.002482       0.000014
  39      -0.002986       0.002551      -0.002039
  40       0.003316       0.000830      -0.002021
  41      -0.001611      -0.002865      -0.001726
  42      -0.006397      -0.017204       0.003713
  43       0.020834      -0.006473       0.016981
  44      -0.013376       0.005362      -0.010320
  45      -0.000903       0.001255       0.004137
  46      -0.023420      -0.003600       0.003761
  47      -0.002127      -0.019786       0.002670
---------------------------------------------------
 Number of fixed atoms: 0
 Gradient time:  CPU 301.08 s  wall 37.16 s

 *****************************************************
             Starting BFGS Algorithm
 *****************************************************
            LIBOPT3 RUN PARAMETERS

  Geometry Optimization Coordinates :
	Delocalized Natural Internal Coordinates

  Step Length Selection Method :
	Eigenvector Following Algorithm

  Step Length Limiter :
	Root-Mean-Square of Gradient

  Convergence Criteria :
	Max Gradient Component    	3.00000000e-04
	Max Displacement Component	1.20000000e-03
	Absolute Energy Difference	1.00000000e-06

  Initial Hessian :
	Approximate Hessian - Model Internal Coordinate

  Type of Verification :
	Verify with final updated Hessian
 *****************************************************

	OPTIMIZATION CYCLE:	1

 Scaling Magnitude of Eigenvalues
 	Minimum: -25.00000000	 Maximum: 25.00000000
 135 Hessian Eigenvalues to form next step
   0.00275241   0.00319558   0.00337051   0.00365563   0.00409025
   0.00436720   0.00440852   0.00454439   0.00463371   0.00623759
   0.00705451   0.00716366   0.00830096   0.00865172   0.00883696
   0.00890952   0.00928593   0.00929699   0.01036047   0.01039646
   0.01233611   0.01367841   0.01610096   0.02100829   0.02173976
   0.02258072   0.03980526   0.04025445   0.04025836   0.04093903
   0.04337844   0.04529303   0.04856447   0.04987180   0.05187047
   0.05360152   0.05449543   0.05475489   0.05583225   0.05629507
   0.05667167   0.05782160   0.05810148   0.05825371   0.06749986
   0.07450962   0.08418737   0.08515573   0.08577506   0.08890887
   0.09329419   0.09637288   0.10756384   0.11191020   0.12488077
   0.12799001   0.13003257   0.13574551   0.15995016   0.16000000
   0.16000000   0.16000000   0.16000000   0.16000000   0.16000000
   0.16361743   0.17132745   0.17745940   0.18164002   0.22000936
   0.22023961   0.22024939   0.22071727   0.22140590   0.22680918
   0.24727339   0.24852551   0.24974380   0.24983298   0.24991321
   0.24995791   0.24996803   0.24999649   0.25000000   0.25000000
   0.25000000   0.25000000   0.25000000   0.27772106   0.27835339
   0.28060541   0.28175492   0.28538747   0.28655122   0.28842576
   0.28870686   0.28963365   0.29385317   0.30830327   0.33379628
   0.34022752   0.34140239   0.34241047   0.34270617   0.34289206
   0.34366855   0.34486402   0.34507529   0.34535271   0.34537557
   0.34718139   0.34750349   0.34760534   0.34791883   0.34820852
   0.34998347   0.35606516   0.36352219   0.37871456   0.42912695
   0.43572679   0.44429744   0.45122217   0.46158863   0.46196087
   0.47523206   0.53057177   0.54193944   0.55541372   0.84268704
   0.86237143   0.90083502   0.90392795   0.90713513   0.94751137


 Minimum Search taking a RFO step
 Searching for Lambda that minimizes along all modes
	Value of Lambda   -0.02165203
	Norm  of Stepsize  0.29784862
	RMS   of Stepsize  0.02563473

	Performing Iterative Coordinate Back-Transformation

	  Starting from Previous Position

	  iter:	0	rms: 2.4957463453e-01	maxdev: 9.5769842935e-01
	  iter:	1	rms: 1.8288234612e-02	maxdev: 8.2716605862e-02
	  iter:	2	rms: 5.2682539177e-05	maxdev: 2.4630785390e-04
	  iter:	3	rms: 3.8318552483e-09	maxdev: 2.6939880766e-08	 Success!

	Finished Iterative Coordinate Back-Transformation
 Adding empirical dispersion correction 
 ----------------------------------------------------------------
 Doing -D3(BJ) with
 s6  =   1.00000e+00
 s8  =   1.98890e+00
 a1  =   3.98100e-01
 a2  =   4.42110e+00
 ----------------------------------------------------------------
 -D3 energy without 3body term =     -9.2241953911e-02 hartrees
 ----------------------------------------------------------------
             Standard Nuclear Orientation (Angstroms)
    I     Atom           X                Y                Z
 ----------------------------------------------------------------
    1      C      -8.7091310317    -2.7134603702     1.2052551336
    2      C      -8.2065998281    -1.4433522851     1.8637047059
    3      N      -7.0482212092    -1.7447205753     2.5761393381
    4      O      -8.6986207297    -0.3295781077     1.8171301922
    5      C      -6.6478299449    -3.0724173465     2.4321858959
    6      C      -6.3022379599    -0.7077225639     3.2851287335
    7      C      -7.6283110540    -3.7614775970     1.4977233699
    8      O      -5.6841009514    -3.5749917372     2.9808324421
    9      H      -7.0802026774    -4.0630879787     0.5931686376
   10      H      -8.0122923971    -4.6682297947     1.9837719244
   11      H      -9.6814607046    -2.9711282718     1.6501951550
   12      H      -8.8641166945    -2.5270458946     0.1339152205
   13      C      -5.0142076205    -0.3897316542     2.5036427926
   14      O      -4.6736612262    -1.0170247017     1.4987765532
   15      N      -4.2958923546     0.6479349255     2.9912933867
   16      C      -6.0325324331    -1.0826842898     4.7521883327
   17      H      -4.6251894291     1.1594043681     3.8017479321
   18      C      -3.0603826731     1.0818507808     2.3486056198
   19      C      -1.9221010013     0.1138534459     2.6761974474
   20      O      -0.6573553443     0.6299365232     2.1520392941
   21      C      -0.3972934058     0.3736015413     0.8298894707
   22      C       0.9590393838     0.8924225450     0.3886891969
   23      O      -1.2065165820    -0.1687450935     0.1171244799
   24      C       2.1613574296     0.7791743719     1.3559258365
   25      C       2.4149878322    -0.6691007292     1.8276347134
   26      O       2.0144911992     1.5939005953     2.5204994975
   27      C       3.4189277905     1.3133131473     0.6195078600
   28      C       4.4837987039     1.9486348909     1.5155799681
   29      O       4.9059953927     3.0712910397     1.3138560399
   30      O       4.9918542838     1.2144452541     2.5055084417
   31      H      -2.8171467116     2.0861535099     2.7161851163
   32      H      -3.2120105373     1.1093784815     1.2618526214
   33      H      -2.1051237661    -0.8695785126     2.2297923574
   34      H      -1.7522861620     0.0408525500     3.7556450918
   35      H       0.8337475882     1.9633910101     0.1652384143
   36      H       3.1007440241     2.1057501591    -0.0683489063
   37      H       3.8828116878     0.5104861076     0.0266812670
   38      H      -6.9452235876     0.1818815710     3.2414229779
   39      H      -5.4056001739    -1.9798946682     4.8025191987
   40      H      -6.9883410451    -1.2796109968     5.2589974674
   41      H      -5.5300605930    -0.2543697729     5.2693491228
   42      H       4.4792476948     0.3525157373     2.5597015597
   43      O       3.3753067738    -1.0037675093     2.5116633197
   44      O       1.5005766675    -1.5471189198     1.4354686328
   45      H       1.1942455432     0.3739600085    -0.5486292593
   46      H       1.0997855065     1.4233104638     2.8364064165
   47      H       1.7330282276    -2.4278269571     1.7980864901
 ----------------------------------------------------------------
 Nuclear Repulsion Energy =        2524.31327665 hartrees
 There are      102 alpha and      102 beta electrons
 Discretize the solute cavity surface with Lebedev spheres
	Using 110 Lebedev grid points for each H atom
	Using 194 Lebedev grid points for other atoms
	Atomic van der Waals radii (Bondi set) will be scaled by 1.20
 Using smooth SwiG surface discretization
 Remove points where switching function is < 1.0e-08
 Keep 3022 surface tesserae and discard 4416 interior tesserae
 Molecular Surface Area = 412.727 Angst**2

 Applying Cartesian multipole field
    Component          Value
    ---------          -----
     (2,0,0)        1.00000E-12
     (0,2,0)        2.00000E-11
     (0,0,2)       -3.00000E-12
 Nucleus-field energy     = 5.0944863602e-08 hartrees
 Requested basis set is cc-pVDZ
 There are 222 shells and 478 basis functions
 A cutoff of  1.0D-12 yielded  13443 shell pairs
 There are     60419 function pairs (     66981 Cartesian)
 Smallest overlap matrix eigenvalue = 1.58E-03
 Guess MOs from SCF MO coefficient file

 -----------------------------------------------------------------------
  General SCF calculation program by
  Eric Jon Sundstrom, Paul Horn, Yuezhi Mao, Dmitri Zuev, Alec White,
  David Stuck, Shaama M.S., Shane Yost, Joonho Lee, David Small,
  Daniel Levine, Susi Lehtola, Hugh Burton, Evgeny Epifanovsky,
  Bang C. Huynh
 -----------------------------------------------------------------------
 Exchange:     0.2000 Hartree-Fock + 0.0800 Slater + 0.7200 B88
 Correlation:  0.1900 VWN1RPA + 0.8100 LYP
 Using SG-1 standard quadrature grid
 Dispersion:   Grimme D3
 A restricted SCF calculation will be
 performed using Roothaan-Hall, DIIS
 SCF converges when DIIS error is below 1.0e-08
 ---------------------------------------
  Cycle       Energy         DIIS error
 ---------------------------------------
    1   -1445.6228089054      1.32e-03  Roothaan Step
 ---------------------------------------
  Cycle       Energy         DIIS error
 ---------------------------------------
    1   -1445.6997398833      2.28e-04  
    2   -1445.6990232170      3.19e-04  
    3   -1445.7011542113      6.85e-05  
    4   -1445.7012309494      3.44e-05  
    5   -1445.7012559568      9.84e-06  
    6   -1445.7012579810      1.96e-06  
    7   -1445.7012580692      8.86e-07  
    8   -1445.7012580858      3.39e-07  
    9   -1445.7012580885      1.35e-07  
   10   -1445.7012580887      3.59e-08  
   11   -1445.7012580889      1.31e-08  
   12   -1445.7012580889      3.92e-09  Convergence criterion met
 ---------------------------------------
 SCF time:   CPU 1609.97s  wall 152.00s 

************** Final PCM Free Energy Summary **************
 G_electrostatic  =      -0.06282954 hartree =     -39.42612964 kcal/mol
 G_cavitation     =       0.00000000 hartree =       0.00000000 kcal/mol
 G_dispersion     =       0.00000000 hartree =       0.00000000 kcal/mol
 G_repulsion      =       0.00000000 hartree =       0.00000000 kcal/mol
 --------------------------------------------------
 Non-electrostatic Free Energy =       0.00000000 hartree =       0.00000000 kcal/mol
 Total                         =      -0.06282954 hartree =     -39.42612964 kcal/mol
 --------------------------------------------------
 SCF Energy (H0 + V/2)                       =   -1445.70125809 
 Solute Internal Energy (H0)                 =   -1445.63842855 
 Total Free Energy (H0 + V/2 + non-elec)     =   -1445.70125809 hartree
                                             = -907191.23611566 kcal/mol
***********************************************************

 SCF   energy = -1445.70125809
 Total energy = -1445.70125809
 
 --------------------------------------------------------------
 
                    Orbital Energies (a.u.)
 --------------------------------------------------------------
 
 Alpha MOs
 -- Occupied --
-19.2141 -19.1969 -19.1741 -19.1641 -19.1606 -19.1447 -19.1356 -19.1323
-19.1241 -19.1166 -14.3838 -14.3611 -10.3457 -10.3317 -10.3195 -10.3077
-10.3070 -10.2941 -10.2862 -10.2462 -10.2432 -10.2276 -10.2158 -10.2107
-10.2042 -10.2029 -10.1881  -1.1385  -1.1124  -1.0969  -1.0719  -1.0504
 -1.0494  -1.0428  -1.0395  -1.0284  -1.0104  -0.9599  -0.9300  -0.8280
 -0.8228  -0.7810  -0.7601  -0.7388  -0.6993  -0.6925  -0.6737  -0.6553
 -0.6231  -0.6201  -0.5978  -0.5963  -0.5702  -0.5609  -0.5468  -0.5385
 -0.5231  -0.5117  -0.5057  -0.4973  -0.4954  -0.4868  -0.4831  -0.4786
 -0.4648  -0.4628  -0.4604  -0.4591  -0.4505  -0.4419  -0.4377  -0.4362
 -0.4333  -0.4234  -0.4218  -0.4175  -0.4126  -0.4046  -0.4026  -0.4003
 -0.3946  -0.3866  -0.3858  -0.3833  -0.3737  -0.3719  -0.3662  -0.3600
 -0.3467  -0.3448  -0.3430  -0.3235  -0.3204  -0.3115  -0.2953  -0.2866
 -0.2856  -0.2847  -0.2712  -0.2646  -0.2613  -0.2600
 -- Virtual --
 -0.0264  -0.0201  -0.0060   0.0093   0.0137   0.0226   0.0532   0.0555
  0.0685   0.0727   0.0901   0.0981   0.1006   0.1075   0.1101   0.1137
  0.1176   0.1248   0.1255   0.1323   0.1375   0.1414   0.1449   0.1528
  0.1567   0.1599   0.1659   0.1763   0.1833   0.1899   0.1982   0.1986
  0.2044   0.2112   0.2195   0.2257   0.2352   0.2421   0.2449   0.2536
  0.2756   0.2912   0.3058   0.3095   0.3190   0.3203   0.3279   0.3433
  0.3460   0.3502   0.3622   0.3814   0.3994   0.4046   0.4137   0.4217
  0.4326   0.4445   0.4489   0.4523   0.4566   0.4586   0.4619   0.4699
  0.4782   0.4853   0.4888   0.4951   0.5001   0.5050   0.5125   0.5189
  0.5248   0.5313   0.5357   0.5432   0.5492   0.5512   0.5562   0.5651
  0.5801   0.5878   0.5899   0.5922   0.5989   0.6018   0.6076   0.6096
  0.6165   0.6205   0.6235   0.6266   0.6297   0.6356   0.6367   0.6395
  0.6421   0.6456   0.6545   0.6578   0.6589   0.6605   0.6611   0.6639
  0.6675   0.6764   0.6819   0.6863   0.7005   0.7032   0.7154   0.7178
  0.7300   0.7331   0.7406   0.7700   0.7728   0.7781   0.7954   0.8179
  0.8277   0.8308   0.8363   0.8519   0.8570   0.8680   0.8727   0.8852
  0.8997   0.9085   0.9150   0.9262   0.9272   0.9353   0.9387   0.9523
  0.9708   0.9904   0.9946   1.0068   1.0189   1.0268   1.0365   1.0375
  1.0418   1.0514   1.0664   1.0726   1.0737   1.0789   1.0817   1.0876
  1.0902   1.1005   1.1110   1.1183   1.1255   1.1345   1.1426   1.1470
  1.1520   1.1592   1.1718   1.1773   1.1893   1.2012   1.2040   1.2102
  1.2151   1.2228   1.2321   1.2475   1.2535   1.2597   1.2733   1.2824
  1.2918   1.3009   1.3100   1.3220   1.3362   1.3473   1.3507   1.3577
  1.3660   1.3783   1.3867   1.3938   1.4085   1.4215   1.4249   1.4429
  1.4543   1.4586   1.4641   1.4741   1.4847   1.4911   1.5000   1.5043
  1.5110   1.5274   1.5341   1.5360   1.5490   1.5647   1.5693   1.5739
  1.5774   1.5882   1.5974   1.6003   1.6118   1.6188   1.6295   1.6315
  1.6366   1.6448   1.6540   1.6562   1.6614   1.6634   1.6700   1.6783
  1.6803   1.6896   1.6957   1.7028   1.7106   1.7201   1.7231   1.7392
  1.7466   1.7515   1.7574   1.7651   1.7704   1.7788   1.7843   1.7931
  1.8008   1.8062   1.8148   1.8185   1.8223   1.8289   1.8359   1.8447
  1.8497   1.8574   1.8726   1.8763   1.8925   1.9027   1.9126   1.9166
  1.9219   1.9371   1.9375   1.9591   1.9618   1.9706   1.9815   1.9882
  1.9917   1.9936   2.0047   2.0204   2.0288   2.0424   2.0478   2.0644
  2.0734   2.0827   2.0877   2.1019   2.1125   2.1191   2.1358   2.1414
  2.1510   2.1552   2.1663   2.1736   2.1830   2.2118   2.2202   2.2298
  2.2344   2.2496   2.2620   2.2756   2.2852   2.2926   2.3040   2.3081
  2.3186   2.3405   2.3450   2.3695   2.3805   2.3911   2.4000   2.4111
  2.4267   2.4374   2.4483   2.4546   2.4625   2.4689   2.4770   2.4890
  2.5093   2.5194   2.5231   2.5498   2.5707   2.5784   2.5928   2.6017
  2.6160   2.6261   2.6335   2.6482   2.6782   2.6893   2.6920   2.7045
  2.7218   2.7370   2.7481   2.7647   2.7777   2.7817   2.8141   2.8147
  2.8199   2.8525   2.8662   2.8761   2.9018   2.9197   2.9646   2.9690
  2.9811   2.9966   3.0534   3.0621   3.0663   3.0863   3.1054   3.1186
  3.1238   3.1316   3.1363   3.1393   3.1579   3.1954   3.2895   3.3260
  3.3503   3.3552   3.3590   3.3931   3.4287   3.4399   3.4440   3.4649
  3.4670   3.4752   3.4882   3.4927   3.5213   3.6751   3.7198   3.7563
 --------------------------------------------------------------
 
          Ground-State Mulliken Net Atomic Charges

     Atom                 Charge (a.u.)
  ----------------------------------------
      1 C                     0.008887
      2 C                     0.152053
      3 N                    -0.198190
      4 O                    -0.288046
      5 C                     0.157847
      6 C                    -0.009287
      7 C                     0.009273
      8 O                    -0.288203
      9 H                     0.071596
     10 H                     0.061543
     11 H                     0.073378
     12 H                     0.064483
     13 C                     0.190348
     14 O                    -0.332358
     15 N                    -0.138847
     16 C                     0.032813
     17 H                     0.131003
     18 C                     0.095907
     19 C                     0.163535
     20 O                    -0.317079
     21 C                     0.208356
     22 C                     0.122064
     23 O                    -0.270409
     24 C                    -0.157620
     25 C                     0.317249
     26 O                    -0.269067
     27 C                     0.078224
     28 C                     0.129961
     29 O                    -0.288274
     30 O                    -0.183026
     31 H                     0.042337
     32 H                     0.031686
     33 H                     0.039100
     34 H                     0.044224
     35 H                     0.080605
     36 H                     0.041031
     37 H                     0.075406
     38 H                     0.042495
     39 H                     0.034993
     40 H                     0.039069
     41 H                     0.036488
     42 H                     0.171509
     43 O                    -0.297936
     44 O                    -0.136201
     45 H                     0.054378
     46 H                     0.169057
     47 H                     0.203647
  ----------------------------------------
  Sum of atomic charges =     0.000000

 -----------------------------------------------------------------
                    Cartesian Multipole Moments
 -----------------------------------------------------------------
    Charge (ESU x 10^10)
                -0.0000
    Dipole Moment (Debye)
         X      -7.6091      Y      -3.7363      Z       1.9970
       Tot       8.7090
    Quadrupole Moments (Debye-Ang)
        XX    -176.3750     XY     -19.7095     YY    -161.2622
        XZ     -41.6105     YZ      -1.0174     ZZ    -137.7295
    Octopole Moments (Debye-Ang^2)
       XXX     584.4913    XXY    -295.1479    XYY     183.1136
       YYY      98.2009    XXZ    -317.6515    XYZ     -82.6149
       YYZ    -342.9201    XZZ     159.2834    YZZ      77.3674
       ZZZ    -836.2430
    Hexadecapole Moments (Debye-Ang^3)
      XXXX  -23406.9318   XXXY   -1189.2301   XXYY   -4037.2271
      XYYY   -3019.5016   YYYY   -3046.5445   XXXZ    1489.1660
      XXYZ    -193.6553   XYYZ     774.9803   YYYZ     486.4855
      XXZZ   -4331.9341   XYZZ   -1199.8274   YYZZ   -1403.7231
      XZZZ    1998.7964   YZZZ     607.3976   ZZZZ   -4465.2957
 -----------------------------------------------------------------
 Calculating analytic gradient of the SCF energy
 Gradient of SCF Energy
            1           2           3           4           5           6
    1   0.0006113  -0.0022262  -0.0002060   0.0019893   0.0074869   0.0005730
    2   0.0020197   0.0043472  -0.0024610  -0.0016911  -0.0026149   0.0011154
    3  -0.0005215   0.0017694  -0.0015887  -0.0002876   0.0059648  -0.0039190
            7           8           9          10          11          12
    1   0.0034699  -0.0057675   0.0012576  -0.0031740  -0.0056040   0.0003529
    2   0.0003732   0.0035088  -0.0002640  -0.0041658  -0.0025347   0.0003623
    3  -0.0004026  -0.0050595  -0.0037666   0.0032237   0.0037311  -0.0054288
           13          14          15          16          17          18
    1   0.0005722   0.0006573   0.0022020   0.0019348  -0.0050230   0.0007796
    2  -0.0097235   0.0028811  -0.0092390  -0.0061591   0.0110391  -0.0008589
    3  -0.0079206   0.0055555  -0.0117885  -0.0005401   0.0156115  -0.0081358
           19          20          21          22          23          24
    1  -0.0080972  -0.0037396  -0.0021179   0.0012466  -0.0027714  -0.0009713
    2  -0.0071750   0.0028738  -0.0048938  -0.0002912   0.0006537  -0.0025531
    3  -0.0026208   0.0088490  -0.0202215   0.0030302   0.0073030   0.0036062
           25          26          27          28          29          30
    1  -0.0019753   0.0218762   0.0005018   0.0142088  -0.0086745   0.0000757
    2   0.0136208   0.0090909   0.0008822   0.0193147  -0.0251548   0.0137736
    3  -0.0033789   0.0015868   0.0016468   0.0044755   0.0070279  -0.0085079
           31          32          33          34          35          36
    1   0.0020260  -0.0006659   0.0006005   0.0031634  -0.0010158  -0.0017697
    2   0.0098463  -0.0005451  -0.0009132   0.0005510   0.0079405   0.0032757
    3   0.0052467  -0.0017682  -0.0017724   0.0098677  -0.0014084  -0.0014675
           37          38          39          40          41          42
    1   0.0024434  -0.0029036   0.0009656  -0.0062491   0.0049529  -0.0033612
    2  -0.0053778   0.0042760  -0.0023053  -0.0008099   0.0084003  -0.0022048
    3  -0.0032932   0.0005601  -0.0008786   0.0024929   0.0043887  -0.0041350
           43          44          45          46          47
    1   0.0084426  -0.0094457   0.0018184  -0.0112954   0.0028455
    2  -0.0105082   0.0074253  -0.0043537  -0.0038618  -0.0169120
    3   0.0097680  -0.0093189  -0.0051680   0.0013848   0.0062086
 Max gradient component =       2.515E-02
 RMS gradient           =       6.566E-03
 Computing fast CPCM-SWIG gradient
 Updating gradient with PCM contributions...
 -- total gradient after adding PCM contribution --
---------------------------------------------------
  Atom         X              Y              Z     
---------------------------------------------------
   1      -0.001773       0.000806      -0.000342
   2       0.000246      -0.002571       0.000236
   3      -0.001163      -0.001678      -0.001172
   4       0.000623       0.001457       0.000774
   5      -0.001514       0.001609      -0.001145
   6      -0.000937       0.004428      -0.001483
   7       0.001317      -0.001960      -0.000618
   8       0.000927      -0.000792       0.000910
   9      -0.000506       0.000666      -0.000129
  10      -0.000509       0.000707       0.000238
  11       0.000642      -0.000383       0.000364
  12       0.000855      -0.000399       0.000069
  13      -0.000198       0.000211       0.003349
  14       0.001743      -0.000925      -0.001449
  15      -0.002122      -0.001040       0.000769
  16       0.001859      -0.000766       0.003077
  17       0.000151       0.000353      -0.000190
  18       0.001909       0.003929      -0.003655
  19      -0.007276      -0.005599       0.004174
  20      -0.005455       0.000992       0.006691
  21       0.002748      -0.001934      -0.016120
  22      -0.000202       0.002032      -0.001854
  23      -0.001419       0.001657       0.006830
  24      -0.000944      -0.002995      -0.001024
  25      -0.003418       0.005227      -0.001323
  26       0.012643       0.005949       0.002634
  27       0.001469      -0.000697      -0.002272
  28      -0.001033      -0.003716       0.003051
  29       0.001386       0.000893       0.001067
  30       0.008411       0.013300      -0.001160
  31      -0.000246      -0.000604       0.000555
  32      -0.000299      -0.000820       0.000597
  33       0.000855       0.000811      -0.001217
  34       0.001438       0.000718      -0.000908
  35      -0.000039      -0.000305       0.000352
  36      -0.000655       0.000307       0.000657
  37      -0.000476       0.000218       0.000688
  38       0.000114      -0.000738       0.000013
  39      -0.000744       0.000128      -0.000944
  40      -0.000075       0.000252      -0.000425
  41       0.000051      -0.000103      -0.000624
  42      -0.005644      -0.005301      -0.002819
  43      -0.000519      -0.008482       0.002072
  44       0.003087      -0.000453       0.000896
  45      -0.000096      -0.000687       0.001364
  46      -0.005348      -0.002621      -0.001150
  47       0.000135      -0.001080       0.000596
---------------------------------------------------
 Number of fixed atoms: 0
 Gradient time:  CPU 212.91 s  wall 27.59 s

     Step 1	:
        Energy is -1445.7012580889
                            Maximum         Tolerance       Converged?
         Gradient           1.83682895e-02	3.00000000e-04	false
         Displacement       9.49583960e-02	1.20000000e-03	false
         Energy change      8.49202220e-03	1.00000000e-06	false


	OPTIMIZATION CYCLE:	2

 Scaling Magnitude of Eigenvalues
 	Minimum: -25.00000000	 Maximum: 25.00000000
 135 Hessian Eigenvalues to form next step
   0.00275583   0.00319562   0.00337119   0.00365917   0.00414941
   0.00436707   0.00443224   0.00456280   0.00463376   0.00623824
   0.00705232   0.00718813   0.00830206   0.00865302   0.00883505
   0.00892366   0.00927252   0.00929691   0.01036961   0.01039755
   0.01233625   0.01367831   0.01610061   0.02100821   0.02173926
   0.02257925   0.03979437   0.04002866   0.04045162   0.04093842
   0.04342619   0.04527615   0.04856335   0.04986575   0.05181941
   0.05361322   0.05449543   0.05526229   0.05580872   0.05639657
   0.05667111   0.05782557   0.05807088   0.05938085   0.06749093
   0.07445752   0.08415822   0.08514653   0.08543749   0.08888939
   0.09325493   0.09639383   0.10756356   0.11198070   0.12478127
   0.12789962   0.13004218   0.13522463   0.15184516   0.15995137
   0.16000000   0.16000000   0.16000000   0.16000000   0.16121911
   0.16543086   0.17443758   0.17730140   0.18140195   0.21680709
   0.22021504   0.22034048   0.22126954   0.22680513   0.23343157
   0.23807333   0.24794397   0.24855493   0.24983515   0.24989391
   0.24992215   0.24996206   0.24999030   0.24999780   0.25000000
   0.25000000   0.25000000   0.27363483   0.27651880   0.27974287
   0.28140123   0.28252141   0.28479492   0.28615043   0.28816139
   0.28888985   0.29131267   0.30533918   0.30826841   0.33890674
   0.34053592   0.34158186   0.34243102   0.34278729   0.34321945
   0.34407355   0.34493854   0.34520015   0.34535843   0.34634676
   0.34728559   0.34754797   0.34782512   0.34811963   0.34962938
   0.35366496   0.36260806   0.36313747   0.38923405   0.42166477
   0.43264444   0.44436105   0.44970212   0.45126474   0.46280980
   0.47773681   0.53083525   0.54978568   0.57908128   0.83264434
   0.85500201   0.89446909   0.90233493   0.90613553   0.95562604


 Minimum Search taking a RFO step
 Searching for Lambda that minimizes along all modes
	Value of Lambda   -0.00791980
	Norm  of Stepsize  0.39142194
	RMS   of Stepsize  0.03368824

	Performing Iterative Coordinate Back-Transformation

	  Starting from Previous Position

	  iter:	0	rms: 1.5760063909e-01	maxdev: 5.6359940912e-01
	  iter:	1	rms: 8.9369150212e-03	maxdev: 4.4428730314e-02
	  iter:	2	rms: 2.5493801771e-05	maxdev: 1.5811325990e-04
	  iter:	3	rms: 8.7266987305e-10	maxdev: 6.1058435782e-09	 Success!

	Finished Iterative Coordinate Back-Transformation
 Adding empirical dispersion correction 
 ----------------------------------------------------------------
 Doing -D3(BJ) with
 s6  =   1.00000e+00
 s8  =   1.98890e+00
 a1  =   3.98100e-01
 a2  =   4.42110e+00
 ----------------------------------------------------------------
 -D3 energy without 3body term =     -9.3084505939e-02 hartrees
 ----------------------------------------------------------------
             Standard Nuclear Orientation (Angstroms)
    I     Atom           X                Y                Z
 ----------------------------------------------------------------
    1      C      -8.7320099357    -2.6770373189     1.2890307008
    2      C      -8.1907929426    -1.4222132199     1.9362887604
    3      N      -7.0174023032    -1.7418310054     2.6119657792
    4      O      -8.6714357220    -0.3089585212     1.9043467518
    5      C      -6.6448544633    -3.0729845390     2.4453928180
    6      C      -6.2355267981    -0.7242282156     3.3004796675
    7      C      -7.6612695709    -3.7407225113     1.5426801327
    8      O      -5.6723320062    -3.5912282792     2.9493086471
    9      H      -7.1394712871    -4.0484350425     0.6219681832
   10      H      -8.0373488280    -4.6501540636     2.0353770809
   11      H      -9.6986350025    -2.9161140272     1.7615621075
   12      H      -8.9226960301    -2.4766553832     0.2235375643
   13      C      -4.9894118996    -0.3921625477     2.4610935169
   14      O      -4.7244938503    -0.9835679531     1.4201364640
   15      N      -4.2287487515     0.6149379157     2.9437902270
   16      C      -5.9175065435    -1.1076996922     4.7506585867
   17      H      -4.5157752017     1.0995349058     3.7854572447
   18      C      -3.0221362735     1.0585973094     2.2683498914
   19      C      -1.8664176379     0.0998549015     2.5377118602
   20      O      -0.6333873276     0.6221941338     1.9909190738
   21      C      -0.3836386961     0.3569314302     0.6867198622
   22      C       0.9669567058     0.8840464077     0.2745291064
   23      O      -1.1416135503    -0.2301545547    -0.0412010166
   24      C       2.0902718037     0.8221526593     1.3226015524
   25      C       2.3700578417    -0.5964295958     1.8503737187
   26      O       1.8034049501     1.6324408547     2.4496960426
   27      C       3.3970879231     1.3588960862     0.6957513298
   28      C       4.4102865536     1.8778132310     1.7049030328
   29      O       4.9164477808     2.9722752149     1.5990378064
   30      O       4.7422124390     1.0741495917     2.7124619704
   31      H      -2.7693470505     2.0595806814     2.6466489441
   32      H      -3.2149741511     1.1154569889     1.1866482826
   33      H      -2.0536913822    -0.8875315968     2.0958340552
   34      H      -1.6685247705     0.0161835834     3.6149874039
   35      H       0.8291328425     1.9474528704     0.0153714118
   36      H       3.1642279496     2.1871253713     0.0126491814
   37      H       3.8844517782     0.5608156970     0.1105432242
   38      H      -6.8751916399     0.1714272681     3.2945146342
   39      H      -5.2744162478    -1.9974026649     4.7876626796
   40      H      -6.8560413647    -1.3187545038     5.2880937268
   41      H      -5.4103016146    -0.2747993101     5.2608218495
   42      H       4.1700330975     0.2671717391     2.6914939415
   43      O       3.3052474532    -0.8358276566     2.5932853182
   44      O       1.5230260960    -1.5224416905     1.4381172509
   45      H       1.2607286582     0.3480075887    -0.6400054069
   46      H       0.8928914473     1.4355036080     2.7140024645
   47      H       1.7888234227    -2.3644394448     1.8442920752
 ----------------------------------------------------------------
 Nuclear Repulsion Energy =        2543.04682037 hartrees
 There are      102 alpha and      102 beta electrons
 Discretize the solute cavity surface with Lebedev spheres
	Using 110 Lebedev grid points for each H atom
	Using 194 Lebedev grid points for other atoms
	Atomic van der Waals radii (Bondi set) will be scaled by 1.20
 Using smooth SwiG surface discretization
 Remove points where switching function is < 1.0e-08
 Keep 3025 surface tesserae and discard 4413 interior tesserae
 Molecular Surface Area = 410.566 Angst**2

 Applying Cartesian multipole field
    Component          Value
    ---------          -----
     (2,0,0)        1.00000E-12
     (0,2,0)        2.00000E-11
     (0,0,2)       -3.00000E-12
 Nucleus-field energy     = 4.9645773024e-08 hartrees
 Requested basis set is cc-pVDZ
 There are 222 shells and 478 basis functions
 A cutoff of  1.0D-12 yielded  13521 shell pairs
 There are     60725 function pairs (     67312 Cartesian)
 Smallest overlap matrix eigenvalue = 1.56E-03
 Guess MOs from SCF MO coefficient file

 -----------------------------------------------------------------------
  General SCF calculation program by
  Eric Jon Sundstrom, Paul Horn, Yuezhi Mao, Dmitri Zuev, Alec White,
  David Stuck, Shaama M.S., Shane Yost, Joonho Lee, David Small,
  Daniel Levine, Susi Lehtola, Hugh Burton, Evgeny Epifanovsky,
  Bang C. Huynh
 -----------------------------------------------------------------------
 Exchange:     0.2000 Hartree-Fock + 0.0800 Slater + 0.7200 B88
 Correlation:  0.1900 VWN1RPA + 0.8100 LYP
 Using SG-1 standard quadrature grid
 Dispersion:   Grimme D3
 A restricted SCF calculation will be
 performed using Roothaan-Hall, DIIS
 SCF converges when DIIS error is below 1.0e-08
 ---------------------------------------
  Cycle       Energy         DIIS error
 ---------------------------------------
    1   -1445.6437239199      1.09e-03  Roothaan Step
 ---------------------------------------
  Cycle       Energy         DIIS error
 ---------------------------------------
    1   -1445.6959531149      2.34e-04  
    2   -1445.6941143467      3.90e-04  
    3   -1445.6972651339      5.26e-05  
    4   -1445.6973159558      2.17e-05  
    5   -1445.6973250258      6.68e-06  
    6   -1445.6973259691      1.31e-06  
    7   -1445.6973260075      5.63e-07  
    8   -1445.6973260140      2.32e-07  
    9   -1445.6973260151      6.49e-08  
   10   -1445.6973260151      2.27e-08  
   11   -1445.6973260153      7.81e-09  Convergence criterion met
 ---------------------------------------
 SCF time:   CPU 1525.35s  wall 144.00s 

************** Final PCM Free Energy Summary **************
 G_electrostatic  =      -0.06612622 hartree =     -41.49482703 kcal/mol
 G_cavitation     =       0.00000000 hartree =       0.00000000 kcal/mol
 G_dispersion     =       0.00000000 hartree =       0.00000000 kcal/mol
 G_repulsion      =       0.00000000 hartree =       0.00000000 kcal/mol
 --------------------------------------------------
 Non-electrostatic Free Energy =       0.00000000 hartree =       0.00000000 kcal/mol
 Total                         =      -0.06612622 hartree =     -41.49482703 kcal/mol
 --------------------------------------------------
 SCF Energy (H0 + V/2)                       =   -1445.69732602 
 Solute Internal Energy (H0)                 =   -1445.63119980 
 Total Free Energy (H0 + V/2 + non-elec)     =   -1445.69732602 hartree
                                             = -907188.76870223 kcal/mol
***********************************************************

 SCF   energy = -1445.69732602
 Total energy = -1445.69732602
 
 --------------------------------------------------------------
 
                    Orbital Energies (a.u.)
 --------------------------------------------------------------
 
 Alpha MOs
 -- Occupied --
-19.2211 -19.2036 -19.1710 -19.1543 -19.1495 -19.1456 -19.1350 -19.1318
-19.1168 -19.1164 -14.3828 -14.3609 -10.3521 -10.3316 -10.3106 -10.3063
-10.3057 -10.2937 -10.2834 -10.2480 -10.2426 -10.2288 -10.2126 -10.2074
-10.2036 -10.2024 -10.1888  -1.1523  -1.1233  -1.0912  -1.0746  -1.0617
 -1.0534  -1.0476  -1.0463  -1.0359  -1.0031  -0.9614  -0.9324  -0.8293
 -0.8249  -0.7853  -0.7617  -0.7394  -0.7022  -0.6924  -0.6770  -0.6572
 -0.6305  -0.6207  -0.6039  -0.5983  -0.5737  -0.5623  -0.5545  -0.5407
 -0.5293  -0.5122  -0.5120  -0.4983  -0.4948  -0.4902  -0.4869  -0.4808
 -0.4674  -0.4636  -0.4622  -0.4574  -0.4494  -0.4431  -0.4398  -0.4385
 -0.4361  -0.4245  -0.4230  -0.4185  -0.4129  -0.4054  -0.4025  -0.4002
 -0.3940  -0.3890  -0.3862  -0.3829  -0.3763  -0.3725  -0.3647  -0.3589
 -0.3561  -0.3431  -0.3424  -0.3258  -0.3213  -0.3025  -0.2958  -0.2863
 -0.2852  -0.2844  -0.2647  -0.2645  -0.2624  -0.2607
 -- Virtual --
 -0.0289  -0.0181  -0.0040   0.0152   0.0175   0.0234   0.0536   0.0553
  0.0685   0.0753   0.0900   0.0976   0.1005   0.1074   0.1105   0.1159
  0.1187   0.1248   0.1275   0.1371   0.1392   0.1432   0.1496   0.1526
  0.1598   0.1692   0.1797   0.1832   0.1900   0.1915   0.2007   0.2094
  0.2099   0.2154   0.2240   0.2303   0.2375   0.2446   0.2456   0.2598
  0.2787   0.2965   0.3084   0.3106   0.3178   0.3238   0.3304   0.3433
  0.3516   0.3577   0.3653   0.3931   0.3996   0.4049   0.4118   0.4200
  0.4294   0.4442   0.4486   0.4524   0.4569   0.4591   0.4648   0.4696
  0.4770   0.4875   0.4926   0.4949   0.5025   0.5076   0.5155   0.5245
  0.5308   0.5353   0.5441   0.5458   0.5518   0.5523   0.5583   0.5683
  0.5774   0.5890   0.5910   0.5944   0.5990   0.6046   0.6078   0.6088
  0.6183   0.6238   0.6244   0.6296   0.6333   0.6358   0.6370   0.6407
  0.6428   0.6460   0.6520   0.6572   0.6591   0.6611   0.6641   0.6660
  0.6697   0.6783   0.6810   0.6854   0.6991   0.7047   0.7167   0.7176
  0.7312   0.7339   0.7472   0.7667   0.7736   0.7798   0.7956   0.8191
  0.8266   0.8298   0.8383   0.8536   0.8583   0.8702   0.8768   0.8854
  0.8972   0.9063   0.9125   0.9279   0.9295   0.9365   0.9378   0.9536
  0.9813   0.9893   1.0013   1.0157   1.0200   1.0274   1.0358   1.0445
  1.0480   1.0530   1.0642   1.0752   1.0778   1.0790   1.0864   1.0914
  1.0959   1.1033   1.1120   1.1194   1.1301   1.1391   1.1430   1.1489
  1.1572   1.1623   1.1760   1.1860   1.1914   1.2083   1.2106   1.2152
  1.2213   1.2333   1.2475   1.2495   1.2562   1.2689   1.2836   1.2973
  1.3030   1.3074   1.3240   1.3254   1.3332   1.3472   1.3566   1.3670
  1.3791   1.3886   1.3985   1.4088   1.4137   1.4211   1.4403   1.4437
  1.4589   1.4651   1.4718   1.4848   1.4883   1.4942   1.5012   1.5091
  1.5170   1.5304   1.5379   1.5424   1.5583   1.5654   1.5733   1.5784
  1.5827   1.5950   1.5993   1.6019   1.6164   1.6204   1.6319   1.6332
  1.6400   1.6458   1.6539   1.6579   1.6615   1.6652   1.6773   1.6819
  1.6831   1.6931   1.6976   1.7083   1.7147   1.7234   1.7354   1.7363
  1.7494   1.7560   1.7617   1.7715   1.7800   1.7832   1.7857   1.7956
  1.8034   1.8077   1.8188   1.8244   1.8272   1.8379   1.8407   1.8475
  1.8502   1.8717   1.8734   1.8939   1.9005   1.9108   1.9135   1.9244
  1.9318   1.9350   1.9454   1.9604   1.9692   1.9767   1.9876   1.9907
  1.9946   1.9978   2.0090   2.0212   2.0307   2.0416   2.0492   2.0806
  2.0872   2.0895   2.0967   2.1040   2.1152   2.1229   2.1376   2.1435
  2.1504   2.1598   2.1684   2.1756   2.1972   2.2099   2.2284   2.2320
  2.2358   2.2601   2.2672   2.2769   2.2809   2.2981   2.3078   2.3104
  2.3345   2.3425   2.3571   2.3661   2.3905   2.3947   2.4095   2.4114
  2.4233   2.4323   2.4500   2.4537   2.4597   2.4647   2.4779   2.4906
  2.5063   2.5144   2.5315   2.5526   2.5732   2.5791   2.5864   2.6028
  2.6203   2.6298   2.6438   2.6497   2.6824   2.6899   2.7005   2.7068
  2.7171   2.7403   2.7487   2.7682   2.7816   2.8039   2.8183   2.8335
  2.8720   2.8781   2.8888   2.9127   2.9278   2.9789   2.9831   2.9943
  3.0293   3.0646   3.0667   3.0772   3.1009   3.1119   3.1249   3.1343
  3.1361   3.1421   3.1583   3.1667   3.1846   3.2327   3.3223   3.3607
  3.3621   3.3681   3.3870   3.4038   3.4392   3.4482   3.4526   3.4718
  3.4736   3.4919   3.4943   3.5103   3.5394   3.6890   3.7530   3.9682
 --------------------------------------------------------------
 
          Ground-State Mulliken Net Atomic Charges

     Atom                 Charge (a.u.)
  ----------------------------------------
      1 C                     0.008139
      2 C                     0.148651
      3 N                    -0.196584
      4 O                    -0.283543
      5 C                     0.153747
      6 C                    -0.011423
      7 C                     0.007960
      8 O                    -0.283509
      9 H                     0.071612
     10 H                     0.061616
     11 H                     0.073189
     12 H                     0.064217
     13 C                     0.185666
     14 O                    -0.326658
     15 N                    -0.135391
     16 C                     0.030683
     17 H                     0.129945
     18 C                     0.091237
     19 C                     0.161364
     20 O                    -0.304894
     21 C                     0.204499
     22 C                     0.130058
     23 O                    -0.266923
     24 C                    -0.171155
     25 C                     0.324258
     26 O                    -0.261430
     27 C                     0.082265
     28 C                     0.116320
     29 O                    -0.291829
     30 O                    -0.196317
     31 H                     0.044257
     32 H                     0.032181
     33 H                     0.039830
     34 H                     0.045611
     35 H                     0.078520
     36 H                     0.037260
     37 H                     0.073229
     38 H                     0.043837
     39 H                     0.035510
     40 H                     0.039874
     41 H                     0.037333
     42 H                     0.146714
     43 O                    -0.264372
     44 O                    -0.118421
     45 H                     0.051408
     46 H                     0.161636
     47 H                     0.199824
  ----------------------------------------
  Sum of atomic charges =     0.000000

 -----------------------------------------------------------------
                    Cartesian Multipole Moments
 -----------------------------------------------------------------
    Charge (ESU x 10^10)
                -0.0000
    Dipole Moment (Debye)
         X      -8.1133      Y      -4.2622      Z       1.7033
       Tot       9.3217
    Quadrupole Moments (Debye-Ang)
        XX    -180.3707     XY     -21.3370     YY    -161.1531
        XZ     -45.9937     YZ      -5.5165     ZZ    -139.9629
    Octopole Moments (Debye-Ang^2)
       XXX     578.6548    XXY    -301.8597    XYY     193.1226
       YYY     103.5900    XXZ    -340.5639    XYZ     -88.2333
       YYZ    -346.3617    XZZ     145.7007    YZZ      63.1301
       ZZZ    -845.9723
    Hexadecapole Moments (Debye-Ang^3)
      XXXX  -23142.0804   XXXY   -1171.7021   XXYY   -3981.1030
      XYYY   -2995.6431   YYYY   -2988.9814   XXXZ    1380.5089
      XXYZ    -295.5283   XYYZ     741.4822   YYYZ     463.5462
      XXZZ   -4374.4009   XYZZ   -1202.1607   YYZZ   -1405.0997
      XZZZ    1910.3356   YZZZ     557.9626   ZZZZ   -4522.9170
 -----------------------------------------------------------------
 Calculating analytic gradient of the SCF energy
 Gradient of SCF Energy
            1           2           3           4           5           6
    1   0.0040916  -0.0033843   0.0007654   0.0044523   0.0108415   0.0026004
    2   0.0029217   0.0090417  -0.0013753  -0.0102160  -0.0051772  -0.0033447
    3   0.0013576   0.0022857  -0.0012475  -0.0009137   0.0079247  -0.0042517
            7           8           9          10          11          12
    1   0.0036768  -0.0131319   0.0022730  -0.0030281  -0.0070441  -0.0006498
    2   0.0043242   0.0067827  -0.0010219  -0.0058239  -0.0021421   0.0011186
    3   0.0012689  -0.0087601  -0.0046259   0.0039174   0.0041636  -0.0066519
           13          14          15          16          17          18
    1   0.0011080  -0.0018646   0.0036374  -0.0002497  -0.0048454  -0.0004798
    2  -0.0101000   0.0065060  -0.0094519  -0.0053568   0.0104782  -0.0062231
    3  -0.0129309   0.0124713  -0.0158763  -0.0046300   0.0161746  -0.0040304
           19          20          21          22          23          24
    1  -0.0019114   0.0064037  -0.0144447  -0.0015681   0.0059828  -0.0003439
    2   0.0003029   0.0020792  -0.0022672  -0.0018376   0.0013569  -0.0010255
    3  -0.0111596   0.0028446  -0.0073437   0.0094131   0.0034728   0.0053765
           25          26          27          28          29          30
    1   0.0138086   0.0015951  -0.0006224   0.0189722  -0.0194925  -0.0250437
    2   0.0047745  -0.0019729   0.0028324   0.0300619  -0.0414245  -0.0240180
    3   0.0104535  -0.0013226   0.0054943  -0.0044339   0.0086299  -0.0068882
           31          32          33          34          35          36
    1   0.0025849  -0.0014749   0.0005593   0.0040705  -0.0024759  -0.0006273
    2   0.0118626   0.0002743  -0.0036281   0.0006886   0.0088714   0.0033146
    3   0.0065417  -0.0037619  -0.0020529   0.0129998  -0.0020351  -0.0029707
           37          38          39          40          41          42
    1   0.0043168  -0.0032743   0.0025438  -0.0075758   0.0059744   0.0052477
    2  -0.0058074   0.0052997  -0.0037883  -0.0012414   0.0098358   0.0122540
    3  -0.0023056   0.0008154   0.0000016   0.0037661   0.0051531  -0.0043171
[...]
  1.1536   1.1579   1.1725   1.1826   1.1884   1.2036   1.2058   1.2180
  1.2208   1.2253   1.2425   1.2484   1.2686   1.2789   1.2793   1.2986
  1.3012   1.3100   1.3123   1.3264   1.3355   1.3448   1.3616   1.3661
  1.3760   1.3867   1.3918   1.3938   1.4091   1.4161   1.4276   1.4352
  1.4439   1.4460   1.4598   1.4710   1.4800   1.4898   1.4950   1.5006
  1.5064   1.5310   1.5335   1.5458   1.5552   1.5660   1.5712   1.5765
  1.5790   1.5920   1.5936   1.6046   1.6076   1.6168   1.6246   1.6340
  1.6426   1.6499   1.6522   1.6541   1.6624   1.6710   1.6788   1.6816
  1.6901   1.6959   1.7044   1.7100   1.7119   1.7223   1.7252   1.7327
  1.7395   1.7535   1.7596   1.7655   1.7698   1.7831   1.7938   1.7962
  1.8012   1.8021   1.8107   1.8228   1.8372   1.8428   1.8513   1.8593
  1.8634   1.8728   1.8850   1.8883   1.8899   1.8944   1.9089   1.9198
  1.9237   1.9283   1.9340   1.9507   1.9559   1.9599   1.9693   1.9862
  1.9894   1.9916   1.9987   2.0282   2.0377   2.0428   2.0630   2.0753
  2.0776   2.0881   2.0913   2.0970   2.1120   2.1211   2.1377   2.1408
  2.1496   2.1614   2.1679   2.1800   2.1871   2.2034   2.2190   2.2366
  2.2443   2.2510   2.2607   2.2638   2.2904   2.2949   2.3089   2.3121
  2.3351   2.3546   2.3729   2.3877   2.3923   2.3996   2.4062   2.4234
  2.4292   2.4356   2.4472   2.4535   2.4603   2.4658   2.4778   2.4863
  2.4992   2.5204   2.5283   2.5525   2.5759   2.5941   2.6110   2.6169
  2.6217   2.6315   2.6361   2.6448   2.6784   2.6857   2.6981   2.7049
  2.7220   2.7327   2.7484   2.7500   2.7667   2.8007   2.8136   2.8164
  2.8256   2.8663   2.8699   2.8901   2.9184   2.9338   2.9594   2.9685
  2.9882   3.0115   3.0492   3.0777   3.0835   3.1017   3.1039   3.1198
  3.1250   3.1354   3.1375   3.1573   3.1773   3.2029   3.3228   3.3476
  3.3535   3.3575   3.3599   3.3886   3.4307   3.4347   3.4398   3.4560
  3.4702   3.4801   3.4876   3.5002   3.5323   3.6765   3.7407   3.7909
 --------------------------------------------------------------
 
          Ground-State Mulliken Net Atomic Charges

     Atom                 Charge (a.u.)
  ----------------------------------------
      1 C                     0.007675
      2 C                     0.150501
      3 N                    -0.196003
      4 O                    -0.284855
      5 C                     0.158595
      6 C                     0.002651
      7 C                     0.012371
      8 O                    -0.291013
      9 H                     0.069506
     10 H                     0.068564
     11 H                     0.071199
     12 H                     0.068819
     13 C                     0.183037
     14 O                    -0.340302
     15 N                    -0.147529
     16 C                     0.025106
     17 H                     0.123533
     18 C                     0.088642
     19 C                     0.157667
     20 O                    -0.305880
     21 C                     0.209333
     22 C                     0.128338
     23 O                    -0.275294
     24 C                    -0.164892
     25 C                     0.299610
     26 O                    -0.267291
     27 C                     0.079870
     28 C                     0.139620
     29 O                    -0.290579
     30 O                    -0.181465
     31 H                     0.043178
     32 H                     0.032453
     33 H                     0.038407
     34 H                     0.048246
     35 H                     0.078156
     36 H                     0.045371
     37 H                     0.079756
     38 H                     0.046167
     39 H                     0.039155
     40 H                     0.042377
     41 H                     0.051075
     42 H                     0.163994
     43 O                    -0.293258
     44 O                    -0.137596
     45 H                     0.055636
     46 H                     0.164169
     47 H                     0.203182
  ----------------------------------------
  Sum of atomic charges =     0.000000

 -----------------------------------------------------------------
                    Cartesian Multipole Moments
 -----------------------------------------------------------------
    Charge (ESU x 10^10)
                 0.0000
    Dipole Moment (Debye)
         X      -6.7100      Y      -6.5579      Z       3.0043
       Tot       9.8516
    Quadrupole Moments (Debye-Ang)
        XX    -201.1268     XY      -1.9245     YY    -144.2612
        XZ     -47.5622     YZ      -5.6849     ZZ    -132.9398
    Octopole Moments (Debye-Ang^2)
       XXX     851.9086    XXY    -302.4557    XYY     160.0939
       YYY      57.8414    XXZ    -311.7049    XYZ     -32.0441
       YYZ    -306.1484    XZZ     127.4768    YZZ      58.5864
       ZZZ    -797.8455
    Hexadecapole Moments (Debye-Ang^3)
      XXXX  -25208.9674   XXXY   -1106.4392   XXYY   -3368.5664
      XYYY   -2145.3115   YYYY   -2326.5573   XXXZ    1782.5396
      XXYZ    -318.0718   XYYZ     652.1418   YYYZ     261.9857
      XXZZ   -3984.1517   XYZZ    -883.6962   YYZZ   -1258.7139
      XZZZ    1807.1606   YZZZ     448.2945   ZZZZ   -4322.3015
 -----------------------------------------------------------------
 Calculating analytic gradient of the SCF energy
 Gradient of SCF Energy
            1           2           3           4           5           6
    1   0.0019856  -0.0063889   0.0008716   0.0046908   0.0039751   0.0011998
    2   0.0025522   0.0071475   0.0007539  -0.0038017   0.0006793  -0.0016112
    3  -0.0002866   0.0022255   0.0002900  -0.0014039   0.0039276  -0.0039969
            7           8           9          10          11          12
    1   0.0007814  -0.0014729   0.0028433  -0.0012379  -0.0057380  -0.0007548
    2   0.0029744   0.0001727  -0.0010125  -0.0070581  -0.0042277   0.0006291
    3  -0.0003921  -0.0027865  -0.0050634   0.0044418   0.0034657  -0.0055360
           13          14          15          16          17          18
    1  -0.0021937   0.0006574  -0.0009609  -0.0012856   0.0004416  -0.0028033
    2  -0.0022124   0.0003588   0.0017231  -0.0026416  -0.0004154  -0.0035849
    3  -0.0156858   0.0106875  -0.0138300  -0.0041167   0.0171517  -0.0052299
           19          20          21          22          23          24
    1  -0.0013207   0.0031658  -0.0064160   0.0014253  -0.0003526  -0.0010116
    2   0.0007890   0.0005576  -0.0020943  -0.0022293   0.0001431   0.0006199
    3  -0.0075348   0.0017348  -0.0049673   0.0041963   0.0012421   0.0047800
           25          26          27          28          29          30
    1   0.0014360   0.0089938  -0.0006681   0.0206890  -0.0171526  -0.0073985
    2   0.0080255   0.0027537   0.0020462   0.0175708  -0.0212799   0.0011964
    3  -0.0006413  -0.0015024   0.0039318   0.0007176   0.0074075  -0.0080666
           31          32          33          34          35          36
    1   0.0042905  -0.0003767  -0.0004001   0.0023991  -0.0005023  -0.0005465
    2   0.0077301   0.0007404  -0.0012125  -0.0034545   0.0073729   0.0025473
    3   0.0068714  -0.0016217  -0.0007485   0.0104742  -0.0013976  -0.0017462
           37          38          39          40          41          42
    1   0.0022920  -0.0020050   0.0057320  -0.0068806   0.0023514   0.0032930
    2  -0.0055931   0.0022104  -0.0047239  -0.0029984   0.0097150   0.0029436
    3  -0.0041097   0.0000449   0.0017943   0.0026714   0.0055248  -0.0015056
           43          44          45          46          47
    1   0.0071064  -0.0098254   0.0016924  -0.0066095   0.0019886
    2  -0.0019601   0.0095069  -0.0030651  -0.0011035  -0.0171797
    3   0.0097602  -0.0131881  -0.0062476   0.0031153   0.0051490
 Max gradient component =       2.128E-02
 RMS gradient           =       5.947E-03
 Computing fast CPCM-SWIG gradient
 Updating gradient with PCM contributions...
 -- total gradient after adding PCM contribution --
---------------------------------------------------
  Atom         X              Y              Z     
---------------------------------------------------
   1       0.000033       0.000034      -0.000068
   2      -0.000019      -0.000010       0.000023
   3       0.000015      -0.000003      -0.000008
   4       0.000012       0.000004      -0.000010
   5       0.000017       0.000036      -0.000058
   6      -0.000012       0.000006       0.000002
   7      -0.000039      -0.000044       0.000087
   8      -0.000008      -0.000021       0.000018
   9       0.000008       0.000034      -0.000018
  10       0.000009      -0.000008      -0.000039
  11       0.000001       0.000002       0.000024
  12      -0.000021      -0.000017       0.000006
  13       0.000004      -0.000034      -0.000009
  14      -0.000010       0.000007       0.000008
  15      -0.000000       0.000017       0.000010
  16       0.000007      -0.000002       0.000010
  17      -0.000000      -0.000007       0.000006
  18       0.000001       0.000001       0.000006
  19      -0.000006       0.000002      -0.000002
  20       0.000014      -0.000003       0.000000
  21      -0.000002      -0.000001       0.000009
  22      -0.000005      -0.000001       0.000009
  23       0.000001       0.000010      -0.000009
  24      -0.000004       0.000006      -0.000006
  25       0.000013      -0.000014      -0.000005
  26      -0.000018      -0.000000       0.000006
  27       0.000000      -0.000000      -0.000000
  28       0.000005       0.000012      -0.000016
  29      -0.000002      -0.000007       0.000007
  30      -0.000017      -0.000020       0.000001
  31      -0.000002      -0.000001       0.000006
  32       0.000001      -0.000005       0.000006
  33      -0.000004      -0.000002       0.000004
  34       0.000006      -0.000002      -0.000002
  35      -0.000001       0.000001      -0.000002
  36      -0.000004       0.000002       0.000005
  37       0.000000       0.000008      -0.000003
  38      -0.000001      -0.000005       0.000005
  39      -0.000001      -0.000004      -0.000002
  40       0.000000      -0.000007      -0.000001
  41       0.000005      -0.000006       0.000002
  42       0.000025      -0.000005       0.000033
  43      -0.000002       0.000029      -0.000014
  44      -0.000009       0.000007      -0.000015
  45       0.000000       0.000003      -0.000003
  46       0.000006       0.000000       0.000010
  47       0.000003       0.000008      -0.000006
---------------------------------------------------
 Number of fixed atoms: 0
 Gradient time:  CPU 295.72 s  wall 40.85 s

     Step 26	:
        Energy is -1445.7062340982
                            Maximum         Tolerance       Converged?
         Gradient           6.28295218e-05	3.00000000e-04	true
         Displacement       9.15260674e-03	1.20000000e-03	false
         Energy change      5.64112270e-07	1.00000000e-06	true

	 Optimization Converged in 26 cycles

 *****************************************************
             End of BFGS Algorithm
 *****************************************************
		----------------------------------
		   Verification of Optimization
		----------------------------------

 Eigenvalues of Hessian in Optimization Verification
   0.00078909   0.00115665   0.00273574   0.00353639   0.00443824
   0.00479323   0.00573095   0.00614282   0.00682880   0.00789411
   0.00827814   0.00868782   0.01120065   0.01180454   0.01283429
   0.01413694   0.01944615   0.02100390   0.02247831   0.02478323
   0.02510485   0.03366306   0.03988613   0.04103791   0.04222897
   0.04289418   0.04422725   0.04476336   0.04560936   0.04803316
   0.04846423   0.05073763   0.05325189   0.05404830   0.05451729
   0.05494460   0.05570362   0.05631523   0.05673179   0.05777762
   0.05804914   0.05831049   0.06140005   0.06518227   0.06806158
   0.08500713   0.08516392   0.08873771   0.09005857   0.09356015
   0.09622743   0.09799195   0.10906756   0.11200612   0.12522761
   0.13361111   0.13616800   0.13828432   0.15759950   0.15932591
   0.15970629   0.16008516   0.16077823   0.16328085   0.17284192
   0.17390115   0.18755155   0.19194007   0.19470663   0.21880299
   0.22241247   0.22545543   0.22660911   0.23600092   0.23882171
   0.24115285   0.24672840   0.24801092   0.24941230   0.24985403
   0.25087397   0.25321022   0.25545105   0.25925437   0.27124560
   0.27830383   0.27904394   0.28033955   0.28330166   0.28504858
   0.28599852   0.28788179   0.28951818   0.29319542   0.29484706
   0.30411030   0.32326700   0.34013466   0.34132771   0.34213762
   0.34232947   0.34264299   0.34286644   0.34376782   0.34465631
   0.34501043   0.34526934   0.34629647   0.34736028   0.34768316
   0.34774273   0.34820976   0.34976065   0.35059215   0.36130911
   0.36343275   0.38966318   0.42678430   0.43426612   0.44360912
   0.45070913   0.45129597   0.46135246   0.47826537   0.52688646
   0.55294931   0.55861172   0.58842844   0.84105276   0.85629321
   0.89945442   0.90173236   0.91416554   0.94717166   0.95553771


 Found a minimum
		---------------------------------
		       End of Verification
		---------------------------------

 Final energy is -1445.706234098163

	******************************
	**  OPTIMIZATION CONVERGED  **
	******************************
 Adding empirical dispersion correction 
 ----------------------------------------------------------------
 Doing -D3(BJ) with
 s6  =   1.00000
 s8  =   1.98890
 a1  =   0.39810
 a2  =   4.42110
 ----------------------------------------------------------------
 -D3 energy without 3body term =     -0.0937637435 hartrees
 ----------------------------------------------------------------
             Standard Nuclear Orientation (Angstroms)
    I     Atom           X                Y                Z
 ----------------------------------------------------------------
    1      C      -8.1809626839    -3.0350416888     1.2076769333
    2      C      -8.0892805062    -1.6784803865     1.8831763946
    3      N      -6.8596555527    -1.6027781944     2.5321277977
    4      O      -8.9170338815    -0.7865392051     1.8862646718
    5      C      -6.0547149472    -2.7167984469     2.3232114892
    6      C      -6.4063111618    -0.4135667484     3.2450935689
    7      C      -6.8334667080    -3.7128950703     1.4851825463
    8      O      -4.9205311557    -2.8241768359     2.7557701698
    9      H      -6.2559043679    -3.9251006836     0.5734078005
   10      H      -6.9221668699    -4.6549962255     2.0455801148
   11      H      -9.0387703341    -3.5781512691     1.6309139037
   12      H      -8.3828523335    -2.8809920333     0.1379472303
   13      C      -5.1611434777     0.1180372316     2.5103013771
   14      O      -5.0935646379     0.0659694584     1.2825559660
   15      N      -4.2000659056     0.6793539221     3.2809222086
   16      C      -6.2661145861    -0.6764326638     4.7443616360
   17      H      -4.2580503505     0.5965005195     4.2889060458
   18      C      -2.9418112015     1.1216228571     2.7067120884
   19      C      -1.9631108234    -0.0486190925     2.6184113369
   20      O      -0.6985223913     0.3923472242     2.0643512096
   21      C      -0.5889190455     0.4236101689     0.7118968337
   22      C       0.7781373959     0.9006473158     0.2712307621
   23      O      -1.4904631798     0.1264107703    -0.0381001225
   24      C       1.9169230587     0.7142056785     1.2870699003
   25      C       2.0438487418    -0.7512659384     1.7500864804
   26      O       1.7510957655     1.5444712573     2.4249183792
   27      C       3.2542473347     1.1341673834     0.6362074951
   28      C       4.3705751233     1.5626517785     1.5885200140
   29      O       5.0980518605     2.4973658105     1.3143392279
   30      O       4.5709355250     0.8650662500     2.7097038608
   31      H      -2.5228981859     1.9244934618     3.3288587682
   32      H      -3.1403326513     1.5103888747     1.6998013930
   33      H      -2.3742984988    -0.8489306673     1.9899514196
   34      H      -1.7153198822    -0.4384788684     3.6133646648
   35      H       0.6961426718     1.9808034317     0.0687829070
   36      H       3.0731969601     1.9937300558    -0.0217227858
   37      H       3.6396752318     0.3179615316     0.0026369513
   38      H      -7.1982844516     0.3323023668     3.0753723503
   39      H      -5.4578241850    -1.3923931340     4.9484919586
   40      H      -7.2089069547    -1.0886256405     5.1318170607
   41      H      -6.0682282020     0.2614424182     5.2849734410
   42      H       3.8826711371     0.1579214993     2.8267736319
   43      O       2.7501474732    -1.0839184837     2.6909147304
   44      O       1.3495766622    -1.6175921031     1.0223197931
   45      H       1.0052914968     0.4038731939    -0.6806699262
   46      H       0.8655594985     1.3511262460     2.7823826601
   47      H       1.5093290766    -2.5199206262     1.3670931616
 ----------------------------------------------------------------
 Nuclear Repulsion Energy =        2567.55727835 hartrees
 There are      102 alpha and      102 beta electrons

Z-matrix Print:
$molecule
0 1
O 
C  1 1.357248
O  2 1.209795 1 123.498183
C  1 1.449351 2 117.283849 3 1.247486 0
H  4 1.096961 1 104.937849 2 154.581821 0
H  4 1.097513 1 109.259770 2 36.464310 0
C  2 1.513471 1 111.736353 3 178.771904 0
H  7 1.097496 2 107.266578 1 149.037868 0
H  7 1.102019 2 107.170926 1 -95.839409 0
C  4 1.528109 1 110.359548 2 -85.331194 0
H  10 1.097460 4 109.519037 1 61.846950 0
H  10 1.098706 4 110.373271 1 -58.466382 0
N  10 1.452076 4 110.156074 1 -179.143539 0
H  13 1.013044 10 117.902848 4 81.003418 0
C  13 1.353737 10 121.088798 4 -84.742444 0
O  15 1.230706 13 123.123410 10 -7.325617 0
C  7 1.537375 2 116.005722 1 23.811776 0
O  17 1.418287 7 111.870432 2 -67.586724 0
H  18 0.974340 17 106.525067 7 54.812457 0
C  15 1.540443 13 116.450098 10 175.311806 0
H  20 1.101067 15 105.908857 13 103.118184 0
N  20 1.458789 15 107.421343 13 -145.440080 0
C  22 1.390186 20 123.145624 15 57.700954 0
O  23 1.218610 22 123.791315 20 2.842007 0
C  22 1.392425 20 123.129570 15 -115.710267 0
O  25 1.216858 22 124.033164 20 -2.639781 0
C  23 1.516890 22 108.178887 20 -176.852019 0
H  27 1.099758 23 108.809517 22 -120.955537 0
H  27 1.099974 23 108.364551 22 122.530761 0
C  25 1.518211 22 108.015265 20 177.465344 0
H  30 1.099460 25 108.589969 22 -124.412740 0
H  30 1.099969 25 108.486141 22 119.063409 0
C  20 1.528580 15 116.940354 13 -19.159513 0
H  33 1.098909 20 111.204411 15 -57.629510 0
H  33 1.099492 20 109.357511 15 -177.711654 0
H  33 1.100468 20 110.595554 15 64.100433 0
C  17 1.542109 7 111.999970 2 55.092948 0
O  37 1.222568 17 122.491715 7 -169.197274 0
O  37 1.327471 17 114.363711 7 12.355757 0
H  39 0.979074 37 108.848358 17 178.259647 0
C  17 1.545453 7 109.253325 2 175.041833 0
H  41 1.097497 17 108.817052 7 36.358036 0
H  41 1.102796 17 110.075956 7 -80.643184 0
C  41 1.528622 17 116.470487 7 155.930748 0
O  44 1.215766 41 120.796495 17 -140.516350 0
O  44 1.335598 41 119.086067 17 41.891167 0
H  46 0.993714 44 111.510600 41 -4.832386 0
$end

 -----------------------------------------------------------------------
                  END OF GEOMETRY OPTIMIZER USING LIBOPT3               
 -----------------------------------------------------------------------
 Total job time:  4408.56s(wall), 45152.53s(cpu) 
 Tue Sep  9 14:41:28 2025

        *************************************************************
        *                                                           *
        *  Thank you very much for using Q-Chem.  Have a nice day.  *
        *                                                           *
        *************************************************************


remove work dirs /scratch/cooksy_group/qchem688272.0 -- /scratch/cooksy_group/qchem688272.0
rm -rf /scratch/cooksy_group/qchem688272.0
rm -rf /scratch/cooksy_group/qchem688272
