You are running Q-Chem version: 6.2.0

#
# job setting
#
local host:  itcotck
current dir: /home/cooksy_group/sgardner/kupper
input file:  VF_SSR_b3lypDBJ_ccpVDZ_PCM_h2o_OPT.in
output file: 
nprocs     : 1
nthreads   : 16
#
# qchem installation setting
#
QC:          /opt/qchem/6.2.0
QCAUX:       /opt/qchem/6.2.0/qcaux
QCPROG:      /opt/qchem/6.2.0/exe/qcprog.exe_s
QCPROG_S:    /opt/qchem/6.2.0/exe/qcprog.exe_s
PARALLEL:    -DSERIAL
QCMPI:       seq
#
# qchem directory setting
#
qcrun:       qchem639745
QCSCRATCH:   /scratch/cooksy_group
QCLOCALSCR:  
QCTMPDIR:    /scratch/cooksy_group
QCFILEPREF:  /scratch/cooksy_group/qchem639745
QCSAVEDIR:   
workdirs:    /scratch/cooksy_group/qchem639745
workdir0:    /scratch/cooksy_group/qchem639745
partmpdirs =  
#
# parallel setting
#
QCRSH:           ssh
QCMPI:           seq
QCMPIRUN:        
QCMACHINEFILE:   /opt/qchem/6.2.0/bin/mpi/machines


#
# env setting
#
exported envs:   QC QCAUX QCSCRATCH QCRUNNAME QCFILEPREF QCPROG QCPROG_S GUIFILE

Running Job 1 of 1 VF_SSR_b3lypDBJ_ccpVDZ_PCM_h2o_OPT.in
qchem VF_SSR_b3lypDBJ_ccpVDZ_PCM_h2o_OPT.in_639745.0 /scratch/cooksy_group/qchem639745/ 1
/opt/qchem/6.2.0/exe/qcprog.exe_s VF_SSR_b3lypDBJ_ccpVDZ_PCM_h2o_OPT.in_639745.0 /scratch/cooksy_group/qchem639745/
                  Welcome to Q-Chem
     A Quantum Leap Into The Future Of Chemistry


 Q-Chem 6.2, Q-Chem, Inc., Pleasanton, CA (2024)

 E. Epifanovsky,  A. T. B. Gilbert,  Xintian Feng,  Joonho Lee,  Yuezhi Mao,  
 N. Mardirossian,  P. Pokhilko,  A. White,  M. Wormit,  M. P. Coons,  
 A. L. Dempwolff,  Zhengting Gan,  D. Hait,  P. R. Horn,  L. D. Jacobson,  
 I. Kaliman,  J. Kussmann,  A. W. Lange,  Ka Un Lao,  D. S. Levine,  Jie Liu,  
 S. C. McKenzie,  A. F. Morrison,  K. D. Nanda,  F. Plasser,  D. R. Rehn,  
 M. L. Vidal,  Zhi-Qiang You,  Ying Zhu,  Huseyin Aksu,  B. Alam,  
 B. Albrecht,  A. Aldossary,  E. Alguire,  J. H. Andersen,  
 J. E. Arias-Martinez,  V. Athavale,  D. Barton,  K. Begam,  A. Behn,  
 N. Bellonzi,  Y. A. Bernard,  E. J. Berquist,  H. Burton,  A. Carreras,  
 K. Carter-Fenk,  Mathew Chow,  Romit Chakraborty,  Chandrima Chakravarty,  
 Junhan Chen,  A. D. Chien,  K. D. Closser,  V. Cofer-Shabica,  L. Cunha,  
 S. Dasgupta,  Jia Deng,  Joseph Dickinson,  M. de Wergifosse,  
 M. Diedenhofen,  Hainam Do,  Wenjie Dou,  S. Ehlert,  Po-Tung Fang,  
 S. Fatehi,  Qingguo Feng,  Jonathan Fetherolf,  T. Friedhoff,  
 Thomas Froitzheim,  Sarai Folkestad,  B. Ganoe,  J. Gayvert,  Qinghui Ge,  
 G. Gidofalvi,  M. Gimferrer,  M. Goldey,  Montgomery Gray,  J. Gomes,  
 C. Gonzalez-Espinoza,  S. Gulania,  A. Gunina,  J. A. Gyamfi,  
 M. W. D. Hanson-Heine,  P. H. P. Harbach,  A. W. Hauser,  M. F. Herbst,  
 M. Hernandez Vera,  M. Hodecker,  Z. C. Holden,  S. Houck,  Xunkun Huang,  
 Kerwin Hui,  B. C. Huynh,  K. Ikeda,  M. Ivanov,  Nayanthara K. Jayadev,  
 Hyunjun Ji,  Zuxin Jin,  Hanjie Jiang,  Subrata Jana,  B. Kaduk,  
 S. Kaehler,  R. Kang,  K. Khistyaev,  Jaehoon Kim,  Yongbin Kim,  
 P. Klunzinger,  Z. Koczor-Benda,  Joong Hoon Koh,  D. Kosenkov,  
 Saikiran Kotaru,  L. Koulias,  T. Kowalczyk,  C. M. Krauter,  K. Kue,  
 A. Kunitsa,  T. Kus,  A. Landau,  K. V. Lawler,  D. Lefrancois,  S. Lehtola,  
 Rain Li,  Shaozhi Li,  Tao E. Li,  Yi-Pei Li,  Jiashu Liang,  M. Liebenthal,  
 Hung-Hsuan Lin,  You-Sheng Lin,  Fenglai Liu,  Kuan-Yu Liu,  Xiao Liu,  
 M. Loipersberger,  A. Luenser,  C. Malbon,  Aniket Mandal,  Manisha,  
 A. Manjanath,  P. Manohar,  E. Mansoor,  S. F. Manzer,  Shan-Ping Mao,  
 A. V. Marenich,  T. Markovich,  S. Mason,  F. Matz,  S. A. Maurer,  
 Samuel May,  Alexandra McIsaac,  P. F. McLaughlin,  M. F. S. J. Menger,  
 J.-M. Mewes,  S. A. Mewes,  P. Morgante,  Mohammad Mostafanejad,  
 Madhubani Mukherjee,  J. W. Mullinax,  Quyen Nguyen,  Avik Kumar Ojha,  
 K. J. Oosterbaan,  Eno Paenurk,  Xiaoliang Pan,  G. Paran,  V. Parravicini,  
 Alexander C. Paul,  Suranjan K. Paul,  F. Pavosevic,  Zheng Pei,  S. Prager,  
 E. I. Proynov,  E. Ramos,  B. Rana,  A. E. Rask,  A. Rettig,  R. M. Richard,  
 F. Rob,  E. Rossomme,  T. Scheele,  M. Scheurer,  M. Schneider,  
 P. E. Schneider,  Tim K. Schramm,  N. Sergueev,  S. M. Sharada,  
 Hengyuan Shen,  W. Skomorowski,  D. W. Small,  C. J. Stein,  
 Alistair J. Sterling,  Yingli Su,  Yu-Chuan Su,  E. J. Sundstrom,  
 J. Talbot,  Zhen Tao,  J. Thirman,  Hung-Yi Tsai,  T. Tsuchimochi,  
 N. M. Tubman,  C. Utku,  S. P. Veccham,  O. Vydrov,  Rahel Weiss,  
 J. Wenzel,  Jonathan Wong,  J. Witte,  H. Wu,  Yanze Wu,  A. Yamada,  
 Chou-Hsun Yang,  Kun Yao,  S. Yeganeh,  S. R. Yost,  Qi Yu,  A. Zech,  
 F. Zeller,  Chongxiao Zhao,  Igor Ying Zhang,  Xing Zhang,  Yu Zhang,  
 D. Zuev,  A. Aspuru-Guzik,  A. T. Bell,  N. A. Besley,  K. B. Bravaya,  
 B. R. Brooks,  D. Casanova,  Jeng-Da Chai,  Hsing-Ta Chen,  S. Coriani,  
 C. J. Cramer,  A. E. DePrince, III,  R. A. DiStasio Jr.,  A. Dreuw,  
 B. D. Dunietz,  T. R. Furlani,  W. A. Goddard III,  S. Grimme,  
 S. Hammes-Schiffer,  T. Head-Gordon,  W. J. Hehre,  Chao-Ping Hsu,  
 T.-C. Jagau,  Yousung Jung,  A. Klamt,  Jing Kong,  D. S. Lambrecht,  
 Xiangyuan Li,  WanZhen Liang,  N. J. Mayhall,  C. W. McCurdy,  J. B. Neaton,  
 T. Neudecker,  C. Ochsenfeld,  J. A. Parkhill,  R. Peverati,  
 V. A. Rassolov,  Haisheng Ren,  Yihan Shao,  L. V. Slipchenko,  
 R. P. Steele,  J. E. Subotnik,  A. J. W. Thom,  A. Tkatchenko,  
 D. G. Truhlar,  T. Van Voorhis,  Fan Wang,  T. A. Wesolowski,  K. B. Whaley,  
 H. L. Woodcock III,  P. M. Zimmerman,  S. Faraji,  P. M. W. Gill,  
 M. Head-Gordon,  J. M. Herbert,  A. I. Krylov

 Contributors to earlier versions of Q-Chem not listed above: 
 R. D. Adamson,  B. Austin,  R. Baer,  J. Baker,  G. J. O. Beran,  
 K. Brandhorst,  S. T. Brown,  E. F. C. Byrd,  Arup K. Chakraborty,  
 G. K. L. Chan,  Chun-Min Chang,  Yunqing Chen,  C.-L. Cheng,  
 Siu Hung Chien,  D. M. Chipman,  D. L. Crittenden,  H. Dachsel,  
 R. J. Doerksen,  A. D. Dutoi,  R. G. Edgar,  J. Fosso-Tande,  
 L. Fusti-Molnar,  D. Ghosh,  A. Ghysels,  A. Golubeva-Zadorozhnaya,  
 J. Gonthier,  M. S. Gordon,  S. R. Gwaltney,  G. Hawkins,  J. E. Herr,  
 A. Heyden,  S. Hirata,  E. G. Hohenstein,  G. Kedziora,  F. J. Keil,  
 C. Kelley,  Jihan Kim,  R. A. King,  R. Z. Khaliullin,  P. P. Korambath,  
 W. Kurlancheek,  A. Laurent,  A. M. Lee,  M. S. Lee,  S. V. Levchenko,  
 Ching Yeh Lin,  D. Liotard,  E. Livshits,  R. C. Lochan,  I. Lotan,  
 L. A. Martinez-Martinez,  P. E. Maslen,  N. Nair,  D. P. O'Neill,  
 D. Neuhauser,  E. Neuscamman,  C. M. Oana,  R. Olivares-Amaya,  R. Olson,  
 T. M. Perrine,  B. Peters,  P. A. Pieniazek,  A. Prociuk,  Y. M. Rhee,  
 J. Ritchie,  M. A. Rohrdanz,  E. Rosta,  N. J. Russ,  H. F. Schaefer III,  
 M. W. Schmidt,  N. E. Schultz,  S. Sharma,  N. Shenvi,  C. D. Sherrill,  
 A. C. Simmonett,  A. Sodt,  T. Stein,  D. Stuck,  K. S. Thanthiriwatte,  
 V. Vanovschi,  L. Vogt,  Tao Wang,  A. Warshel,  M. A. Watson,  
 C. F. Williams,  Q. Wu,  X. Xu,  Jun Yang,  W. Zhang,  Yan Zhao

   Please cite Q-Chem as follows:
  "Software for the frontiers of quantum chemistry:
   An overview of developments in the Q-Chem 5 package"
   J. Chem. Phys. 155, 084801 (2021)
   https://doi.org/10.1063/5.0055522 (open access)

 Q-Chem 6.2.0 for Intel X86 EM64T Linux

 Parts of Q-Chem use Armadillo 9.900.5 (Nocturnal Misbehaviour).
 http://arma.sourceforge.net/

 Q-Chem begins on Sun Sep  7 06:21:46 2025  

 Host: 
0

     Scratch files written to /scratch/cooksy_group/qchem639745//
 May224 |scratch|qcdevops|jenkins|workspace|build_RNUM -1
 Processing $rem in /opt/qchem/6.2.0/config/preferences:
 Processing $rem in /home/cooksy_group/.qchemrc:
 Symmetry turned off for PCM/SM12/SMD calculation

 Checking the input file for inconsistencies... 	...done.

--------------------------------------------------------------
User input:
--------------------------------------------------------------
$molecule
0 1
C   -8.4999320   -2.8888241    1.5674169
C   -7.9721933   -1.4973532    1.9196871
N   -6.8193230   -1.6778568    2.6744722
O   -8.4659933   -0.3923390    1.6599699
C   -6.4801807   -3.0972543    2.8968587
C   -6.1585985   -0.5311628    3.3085028
O   -5.0744955   -3.3739462    2.9045526
C   -7.0056647   -3.5652367    4.2813094
H   -9.2640157   -3.1444921    2.3094348
H   -8.9274959   -2.9088461    0.5648990
C   -4.7981015   -0.2591329    2.6510050
N   -4.4074929    1.0224375    2.6175061
C   -5.9785686   -0.7169596    4.8333274
C   -3.0951622    1.4003949    2.0602608
C   -1.9858669    1.0408129    3.0612024
O   -0.6758419    1.5536378    2.5473321
C   -0.0443020    0.8209274    1.6133612
C    1.2601736    1.4435875    1.1731218
O   -0.5261694   -0.2421784    1.1654896
C    2.4260467    0.4140316    1.1808393
C    2.4011291   -0.4763413   -0.0918226
O    2.2504221   -0.5553120    2.2636130
C    3.7743481    1.1558581    1.2953289
C    4.8886442    0.2394822    1.8160342
O    5.3803435    0.3574985    2.9382602
O    5.3210001   -0.7110906    0.9525790
H   -3.0985993    2.4726553    1.8659265
H   -2.9303312    0.8479150    1.1331437
H   -1.9249807   -0.0408194    3.1765913
H   -2.1163619    1.5492646    4.0138703
H    1.4861031    2.2538664    1.8667342
H    3.6743527    1.9599943    2.0258841
H    4.0455088    1.5771213    0.3235553
H   -6.8207886    0.3162901    3.1054039
H   -5.4043508   -1.6220769    5.0420557
H   -6.9626448   -0.8045919    5.3025038
H   -5.4550899    0.1470748    5.2513620
H    4.7302477   -0.7129424    0.1110571
O    3.4257150   -0.6699526   -0.7796736
O    1.2565055   -1.0539768   -0.4208372
H    1.1341924    1.8689726    0.1697814
H    2.4042660   -0.0774796    3.1268096
O   -4.0461358   -1.1774598    2.2003195
H   -5.0131489    1.7578792    2.9741384
O   -8.1809439   -3.5047956    4.6328073
O   -5.9969234   -4.0592478    5.0437063
H   -4.5517486   -2.5394509    2.5277982
H   -5.1780502   -3.9589178    4.4155305
C   -7.2683884   -3.7935591    1.7589541
H    0.4448189   -0.8259419    0.2150459
H   -6.6295888   -3.7703524    0.8712925
H   -7.5161409   -4.8258744    2.0086578
$end

$rem
BASIS  =  cc-pVDZ
DFT_D  =  D3_BJ
GUI  =  2
JOB_TYPE  =  Optimization
MEM_TOTAL  =  30000
METHOD  =  B3LYP
SCF_CONVERGENCE  =  8
SCF_MAX_CYCLES  =  200
SOLVENT_METHOD  =  PCM
$end

$geom_opt
MAXITER  200
$end

$pcm
THEORY  CPCM
$end

$solvent
DIELECTRIC  78.39
$end


--------------------------------------------------------------
 Adding empirical dispersion correction 
 ----------------------------------------------------------------
 Doing -D3(BJ) with
 s6  =   1.00000
 s8  =   1.98890
 a1  =   0.39810
 a2  =   4.42110
 ----------------------------------------------------------------
 -D3 energy without 3body term =     -0.1078182240 hartrees
 ----------------------------------------------------------------
             Standard Nuclear Orientation (Angstroms)
    I     Atom           X                Y                Z
 ----------------------------------------------------------------
    1      C      -8.4999320000    -2.8888241000     1.5674169000
    2      C      -7.9721933000    -1.4973532000     1.9196871000
    3      N      -6.8193230000    -1.6778568000     2.6744722000
    4      O      -8.4659933000    -0.3923390000     1.6599699000
    5      C      -6.4801807000    -3.0972543000     2.8968587000
    6      C      -6.1585985000    -0.5311628000     3.3085028000
    7      O      -5.0744955000    -3.3739462000     2.9045526000
    8      C      -7.0056647000    -3.5652367000     4.2813094000
    9      H      -9.2640157000    -3.1444921000     2.3094348000
   10      H      -8.9274959000    -2.9088461000     0.5648990000
   11      C      -4.7981015000    -0.2591329000     2.6510050000
   12      N      -4.4074929000     1.0224375000     2.6175061000
   13      C      -5.9785686000    -0.7169596000     4.8333274000
   14      C      -3.0951622000     1.4003949000     2.0602608000
   15      C      -1.9858669000     1.0408129000     3.0612024000
   16      O      -0.6758419000     1.5536378000     2.5473321000
   17      C      -0.0443020000     0.8209274000     1.6133612000
   18      C       1.2601736000     1.4435875000     1.1731218000
   19      O      -0.5261694000    -0.2421784000     1.1654896000
   20      C       2.4260467000     0.4140316000     1.1808393000
   21      C       2.4011291000    -0.4763413000    -0.0918226000
   22      O       2.2504221000    -0.5553120000     2.2636130000
   23      C       3.7743481000     1.1558581000     1.2953289000
   24      C       4.8886442000     0.2394822000     1.8160342000
   25      O       5.3803435000     0.3574985000     2.9382602000
   26      O       5.3210001000    -0.7110906000     0.9525790000
   27      H      -3.0985993000     2.4726553000     1.8659265000
   28      H      -2.9303312000     0.8479150000     1.1331437000
   29      H      -1.9249807000    -0.0408194000     3.1765913000
   30      H      -2.1163619000     1.5492646000     4.0138703000
   31      H       1.4861031000     2.2538664000     1.8667342000
   32      H       3.6743527000     1.9599943000     2.0258841000
   33      H       4.0455088000     1.5771213000     0.3235553000
   34      H      -6.8207886000     0.3162901000     3.1054039000
   35      H      -5.4043508000    -1.6220769000     5.0420557000
   36      H      -6.9626448000    -0.8045919000     5.3025038000
   37      H      -5.4550899000     0.1470748000     5.2513620000
   38      H       4.7302477000    -0.7129424000     0.1110571000
   39      O       3.4257150000    -0.6699526000    -0.7796736000
   40      O       1.2565055000    -1.0539768000    -0.4208372000
   41      H       1.1341924000     1.8689726000     0.1697814000
   42      H       2.4042660000    -0.0774796000     3.1268096000
   43      O      -4.0461358000    -1.1774598000     2.2003195000
   44      H      -5.0131489000     1.7578792000     2.9741384000
   45      O      -8.1809439000    -3.5047956000     4.6328073000
   46      O      -5.9969234000    -4.0592478000     5.0437063000
   47      H      -4.5517486000    -2.5394509000     2.5277982000
   48      H      -5.1780502000    -3.9589178000     4.4155305000
   49      C      -7.2683884000    -3.7935591000     1.7589541000
   50      H       0.4448189000    -0.8259419000     0.2150459000
   51      H      -6.6295888000    -3.7703524000     0.8712925000
   52      H      -7.5161409000    -4.8258744000     2.0086578000
 ----------------------------------------------------------------
 Nuclear Repulsion Energy =        3050.74052800 hartrees
 There are      114 alpha and      114 beta electrons
 Requested basis set is cc-pVDZ
 There are 246 shells and 530 basis functions

 Total QAlloc Memory Limit  30000 MB
 Mega-Array Size       188 MB
 MEM_STATIC part       192 MB

 -----------------------------------------------------------------------
                STARTING GEOMETRY OPTIMIZER USING LIBOPT3
                by Peter F. McLaughlin, Yu Zhang, Evgeny Epifanovsky
 -----------------------------------------------------------------------

              Initial Energy and Gradient Calculation
   -- Checking Topology for Ill-Behaving Coordinates --

 -------------------------------------------
   Coordinate       |  Removed | Additions 
 -------------------------------------------
	Bonds                     0          0
	Angles                    0          0
	Torsions                  0          0
	Co-Linear Type5s          0          0
	Co-Linear Type6s          0          0
 -------------------------------------------
     Done Checking Topology
 Adding empirical dispersion correction 
 ----------------------------------------------------------------
 Doing -D3(BJ) with
 s6  =   1.00000
 s8  =   1.98890
 a1  =   0.39810
 a2  =   4.42110
 ----------------------------------------------------------------
 -D3 energy without 3body term =     -0.1078182240 hartrees
 ----------------------------------------------------------------
             Standard Nuclear Orientation (Angstroms)
    I     Atom           X                Y                Z
 ----------------------------------------------------------------
    1      C      -8.4999320000    -2.8888241000     1.5674169000
    2      C      -7.9721933000    -1.4973532000     1.9196871000
    3      N      -6.8193230000    -1.6778568000     2.6744722000
    4      O      -8.4659933000    -0.3923390000     1.6599699000
    5      C      -6.4801807000    -3.0972543000     2.8968587000
    6      C      -6.1585985000    -0.5311628000     3.3085028000
    7      O      -5.0744955000    -3.3739462000     2.9045526000
    8      C      -7.0056647000    -3.5652367000     4.2813094000
    9      H      -9.2640157000    -3.1444921000     2.3094348000
   10      H      -8.9274959000    -2.9088461000     0.5648990000
   11      C      -4.7981015000    -0.2591329000     2.6510050000
   12      N      -4.4074929000     1.0224375000     2.6175061000
   13      C      -5.9785686000    -0.7169596000     4.8333274000
   14      C      -3.0951622000     1.4003949000     2.0602608000
   15      C      -1.9858669000     1.0408129000     3.0612024000
   16      O      -0.6758419000     1.5536378000     2.5473321000
   17      C      -0.0443020000     0.8209274000     1.6133612000
   18      C       1.2601736000     1.4435875000     1.1731218000
   19      O      -0.5261694000    -0.2421784000     1.1654896000
   20      C       2.4260467000     0.4140316000     1.1808393000
   21      C       2.4011291000    -0.4763413000    -0.0918226000
   22      O       2.2504221000    -0.5553120000     2.2636130000
   23      C       3.7743481000     1.1558581000     1.2953289000
   24      C       4.8886442000     0.2394822000     1.8160342000
   25      O       5.3803435000     0.3574985000     2.9382602000
   26      O       5.3210001000    -0.7110906000     0.9525790000
   27      H      -3.0985993000     2.4726553000     1.8659265000
   28      H      -2.9303312000     0.8479150000     1.1331437000
   29      H      -1.9249807000    -0.0408194000     3.1765913000
   30      H      -2.1163619000     1.5492646000     4.0138703000
   31      H       1.4861031000     2.2538664000     1.8667342000
   32      H       3.6743527000     1.9599943000     2.0258841000
   33      H       4.0455088000     1.5771213000     0.3235553000
   34      H      -6.8207886000     0.3162901000     3.1054039000
   35      H      -5.4043508000    -1.6220769000     5.0420557000
   36      H      -6.9626448000    -0.8045919000     5.3025038000
   37      H      -5.4550899000     0.1470748000     5.2513620000
   38      H       4.7302477000    -0.7129424000     0.1110571000
   39      O       3.4257150000    -0.6699526000    -0.7796736000
   40      O       1.2565055000    -1.0539768000    -0.4208372000
   41      H       1.1341924000     1.8689726000     0.1697814000
   42      H       2.4042660000    -0.0774796000     3.1268096000
   43      O      -4.0461358000    -1.1774598000     2.2003195000
   44      H      -5.0131489000     1.7578792000     2.9741384000
   45      O      -8.1809439000    -3.5047956000     4.6328073000
   46      O      -5.9969234000    -4.0592478000     5.0437063000
   47      H      -4.5517486000    -2.5394509000     2.5277982000
   48      H      -5.1780502000    -3.9589178000     4.4155305000
   49      C      -7.2683884000    -3.7935591000     1.7589541000
   50      H       0.4448189000    -0.8259419000     0.2150459000
   51      H      -6.6295888000    -3.7703524000     0.8712925000
   52      H      -7.5161409000    -4.8258744000     2.0086578000
 ----------------------------------------------------------------
 Nuclear Repulsion Energy =        3050.74052800 hartrees
 There are      114 alpha and      114 beta electrons
 Using C-PCM dielectric factor f(eps) = (eps-1)/eps = 0.987243
 Static dielectric constant eps = 78.39
 Discretize the solute cavity surface with Lebedev spheres
	Using 110 Lebedev grid points for each H atom
	Using 194 Lebedev grid points for other atoms
	Atomic van der Waals radii (Bondi set) will be scaled by 1.20
 Using smooth SwiG surface discretization
 Remove points where switching function is < 1.0e-08
 Keep 3268 surface tesserae and discard 4972 interior tesserae
 Molecular Surface Area = 438.741 Angst**2

 Requested basis set is cc-pVDZ
 There are 246 shells and 530 basis functions
 A cutoff of  1.0D-12 yielded  15993 shell pairs
 There are     71525 function pairs (     79257 Cartesian)
 Smallest overlap matrix eigenvalue = 1.64E-03

 Scale SEOQF with 1.000000e-02/1.000000e-01/1.000000e-02

 Standard Electronic Orientation quadrupole field applied
 Nucleus-field energy     =     0.0000000649 hartrees
 Guess from superposition of atomic densities
 Warning:  Energy on first SCF cycle will be non-variational
 SAD guess density has 228.000000 electrons

 -----------------------------------------------------------------------
  General SCF calculation program by
  Eric Jon Sundstrom, Paul Horn, Yuezhi Mao, Dmitri Zuev, Alec White,
  David Stuck, Shaama M.S., Shane Yost, Joonho Lee, David Small,
  Daniel Levine, Susi Lehtola, Hugh Burton, Evgeny Epifanovsky,
  Bang C. Huynh
 -----------------------------------------------------------------------
 Exchange:     0.2000 Hartree-Fock + 0.0800 Slater + 0.7200 B88
 Correlation:  0.1900 VWN1RPA + 0.8100 LYP
 Using SG-1 standard quadrature grid
 Dispersion:   Grimme D3
 using 16 threads for integral computing
 -------------------------------------------------------
 OpenMP Integral computing Module                
 Release: version 1.0, May 2013, Q-Chem Inc. Pittsburgh 
 -------------------------------------------------------
 C-PCM solvent model [f = (eps-1)/eps], solve by matrix inversion
 A restricted SCF calculation will be
 performed using DIIS
 SCF converges when DIIS error is below 1.0e-08
 ---------------------------------------
  Cycle       Energy         DIIS error
 ---------------------------------------
    1   -1641.2322880008      3.33e-02  
    2   -1634.8591813524      4.80e-03  
    3   -1633.7764879634      8.02e-03  
    4   -1635.4214448723      1.45e-03  
    5   -1635.4822930531      3.90e-04  
    6   -1635.4857096092      1.58e-04  
    7   -1635.4864267555      3.71e-05  
    8   -1635.4864603613      1.61e-05  
    9   -1635.4864668435      5.05e-06  
   10   -1635.4864675472      1.06e-06  
   11   -1635.4864675716      5.35e-07  
   12   -1635.4864675791      9.67e-08  
   13   -1635.4864675795      6.12e-08  
   14   -1635.4864675796      1.47e-08  
   15   -1635.4864675796      4.88e-09  Convergence criterion met
 ---------------------------------------
 SCF time:   CPU 1758.02s  wall 153.00s 

************** Final PCM Free Energy Summary **************
 G_electrostatic  =      -0.06987543 hartree =     -43.84749585 kcal/mol
 G_cavitation     =       0.00000000 hartree =       0.00000000 kcal/mol
 G_dispersion     =       0.00000000 hartree =       0.00000000 kcal/mol
 G_repulsion      =       0.00000000 hartree =       0.00000000 kcal/mol
 --------------------------------------------------
 Non-electrostatic Free Energy =       0.00000000 hartree =       0.00000000 kcal/mol
 Total                         =      -0.06987543 hartree =     -43.84749585 kcal/mol
 --------------------------------------------------
 SCF Energy (H0 + V/2)                       =   -1635.48646758 
 Solute Internal Energy (H0)                 =   -1635.41659215 
 Total Free Energy (H0 + V/2 + non-elec)     =   -1635.48646758 hartree
                                             = -1026283.25310809 kcal/mol
***********************************************************

 SCF   energy = -1635.48646758
 Total energy = -1635.48646758
 
 --------------------------------------------------------------
 
                    Orbital Energies (a.u.)
 --------------------------------------------------------------
 
 Alpha MOs
 -- Occupied --
-19.2164 -19.1845 -19.1785 -19.1738 -19.1676 -19.1653 -19.1549 -19.1504
-19.1467 -19.1398 -19.1272 -19.1247 -14.3841 -14.3739 -10.3574 -10.3442
-10.3230 -10.3208 -10.3169 -10.3000 -10.2988 -10.2898 -10.2585 -10.2519
-10.2389 -10.2245 -10.2084 -10.2003 -10.1985 -10.1932  -1.1293  -1.1082
 -1.0973  -1.0801  -1.0658  -1.0469  -1.0441  -1.0350  -1.0298  -1.0232
 -1.0107  -1.0001  -0.9501  -0.9434  -0.8291  -0.8253  -0.7899  -0.7622
 -0.7469  -0.7244  -0.6964  -0.6761  -0.6587  -0.6331  -0.6266  -0.6123
 -0.5928  -0.5921  -0.5816  -0.5781  -0.5657  -0.5524  -0.5370  -0.5333
 -0.5227  -0.5138  -0.5080  -0.4993  -0.4903  -0.4831  -0.4790  -0.4774
 -0.4689  -0.4647  -0.4593  -0.4576  -0.4534  -0.4515  -0.4474  -0.4385
 -0.4347  -0.4300  -0.4258  -0.4189  -0.4175  -0.4092  -0.4009  -0.3988
 -0.3963  -0.3948  -0.3926  -0.3870  -0.3826  -0.3754  -0.3742  -0.3710
 -0.3681  -0.3645  -0.3601  -0.3496  -0.3403  -0.3273  -0.3197  -0.3139
 -0.3116  -0.3087  -0.3063  -0.2945  -0.2928  -0.2832  -0.2780  -0.2724
 -0.2657  -0.2544
 -- Virtual --
 -0.0382  -0.0246  -0.0143  -0.0101   0.0043   0.0137   0.0457   0.0508
  0.0728   0.0806   0.0821   0.0882   0.0965   0.1021   0.1040   0.1067
  0.1102   0.1178   0.1259   0.1318   0.1335   0.1408   0.1418   0.1463
  0.1492   0.1529   0.1555   0.1649   0.1708   0.1733   0.1743   0.1804
  0.1870   0.1978   0.2006   0.2090   0.2143   0.2157   0.2201   0.2224
  0.2248   0.2306   0.2424   0.2503   0.2719   0.2873   0.2912   0.2946
  0.2993   0.3235   0.3282   0.3376   0.3441   0.3476   0.3635   0.3665
  0.3689   0.3745   0.3981   0.4114   0.4229   0.4314   0.4351   0.4382
  0.4436   0.4519   0.4545   0.4588   0.4603   0.4679   0.4717   0.4721
  0.4800   0.4819   0.4919   0.4952   0.5036   0.5043   0.5090   0.5165
  0.5200   0.5284   0.5319   0.5349   0.5392   0.5431   0.5523   0.5588
  0.5613   0.5714   0.5809   0.5834   0.5892   0.5916   0.5987   0.6036
  0.6104   0.6136   0.6168   0.6172   0.6211   0.6253   0.6296   0.6350
  0.6356   0.6420   0.6462   0.6492   0.6530   0.6567   0.6625   0.6680
  0.6718   0.6727   0.6763   0.6826   0.6847   0.6939   0.7088   0.7121
  0.7207   0.7250   0.7354   0.7542   0.7582   0.7662   0.7837   0.7898
  0.8082   0.8242   0.8314   0.8391   0.8454   0.8516   0.8579   0.8694
  0.8812   0.8831   0.8849   0.9016   0.9119   0.9183   0.9343   0.9387
  0.9457   0.9629   0.9736   0.9827   0.9898   0.9991   1.0078   1.0089
  1.0139   1.0203   1.0276   1.0457   1.0565   1.0628   1.0709   1.0714
  1.0752   1.0813   1.0841   1.0885   1.0963   1.0978   1.1057   1.1114
  1.1139   1.1194   1.1227   1.1256   1.1384   1.1410   1.1550   1.1594
  1.1682   1.1793   1.1838   1.1936   1.1950   1.1973   1.2088   1.2148
  1.2249   1.2322   1.2378   1.2481   1.2556   1.2643   1.2778   1.2843
  1.2901   1.3053   1.3089   1.3226   1.3246   1.3362   1.3406   1.3492
  1.3652   1.3733   1.3795   1.3891   1.3989   1.3994   1.4145   1.4250
  1.4282   1.4369   1.4406   1.4490   1.4564   1.4627   1.4732   1.4861
  1.4932   1.4953   1.5030   1.5161   1.5208   1.5248   1.5287   1.5344
  1.5386   1.5511   1.5584   1.5676   1.5811   1.5875   1.5891   1.6021
  1.6068   1.6138   1.6198   1.6217   1.6262   1.6346   1.6373   1.6421
  1.6524   1.6595   1.6613   1.6678   1.6735   1.6834   1.6886   1.6927
  1.7006   1.7013   1.7033   1.7104   1.7150   1.7213   1.7242   1.7341
  1.7356   1.7388   1.7500   1.7538   1.7622   1.7747   1.7756   1.7830
  1.7898   1.8041   1.8122   1.8147   1.8211   1.8261   1.8382   1.8404
  1.8472   1.8526   1.8673   1.8699   1.8834   1.8913   1.8967   1.9033
  1.9081   1.9255   1.9311   1.9328   1.9433   1.9516   1.9591   1.9733
  1.9773   1.9960   1.9986   1.9999   2.0169   2.0225   2.0348   2.0389
  2.0494   2.0555   2.0566   2.0684   2.0806   2.0891   2.0922   2.0949
  2.1139   2.1192   2.1261   2.1371   2.1501   2.1647   2.1794   2.1837
  2.1928   2.2112   2.2270   2.2352   2.2432   2.2558   2.2597   2.2655
  2.2775   2.2845   2.3064   2.3148   2.3221   2.3358   2.3514   2.3580
  2.3603   2.3790   2.3861   2.4109   2.4347   2.4371   2.4412   2.4536
  2.4633   2.4645   2.4733   2.4896   2.5127   2.5250   2.5306   2.5371
  2.5532   2.5571   2.5627   2.5798   2.5930   2.6064   2.6246   2.6347
  2.6439   2.6463   2.6489   2.6844   2.6859   2.6962   2.7149   2.7254
  2.7395   2.7443   2.7890   2.7943   2.8085   2.8107   2.8342   2.8556
  2.8594   2.8714   2.8889   2.8984   2.9041   2.9149   2.9388   2.9590
  2.9696   2.9800   3.0029   3.0181   3.0397   3.0443   3.0494   3.0566
  3.0573   3.0885   3.0946   3.1007   3.1170   3.1218   3.1369   3.1419
  3.1574   3.2448   3.2754   3.3056   3.3154   3.3217   3.3323   3.3407
  3.3427   3.3482   3.3756   3.3760   3.4358   3.4412   3.4566   3.4591
  3.4619   3.4703   3.4895   3.6509   3.6639   3.7632   3.8176   3.8387
 --------------------------------------------------------------
 
          Ground-State Mulliken Net Atomic Charges

     Atom                 Charge (a.u.)
  ----------------------------------------
      1 C                     0.017647
      2 C                     0.160684
      3 N                    -0.221880
      4 O                    -0.327997
      5 C                     0.042407
      6 C                    -0.003862
      7 O                    -0.373783
      8 C                     0.244152
      9 H                     0.057809
     10 H                     0.037834
     11 C                     0.247440
     12 N                    -0.110911
     13 C                     0.040735
     14 C                     0.098191
     15 C                     0.157167
     16 O                    -0.261376
     17 C                     0.267814
     18 C                     0.111201
     19 O                    -0.315883
     20 C                    -0.173288
     21 C                     0.328203
     22 O                    -0.303370
     23 C                     0.097764
     24 C                     0.143005
     25 O                    -0.302088
     26 O                    -0.232534
     27 H                     0.055250
     28 H                     0.048871
     29 H                     0.057569
     30 H                     0.060074
     31 H                     0.061550
     32 H                     0.038434
     33 H                     0.061234
     34 H                     0.031537
     35 H                     0.026071
     36 H                     0.047938
     37 H                     0.044335
     38 H                     0.197749
     39 O                    -0.325391
     40 O                    -0.211554
     41 H                     0.093940
     42 H                     0.205847
     43 O                    -0.368293
     44 H                     0.149718
     45 O                    -0.289934
     46 O                    -0.218329
     47 H                     0.214723
     48 H                     0.215353
     49 C                     0.093190
     50 H                     0.219742
     51 H                     0.034199
     52 H                     0.031098
  ----------------------------------------
  Sum of atomic charges =     0.000000

 -----------------------------------------------------------------
                    Cartesian Multipole Moments
 -----------------------------------------------------------------
    Charge (ESU x 10^10)
                -0.0000
    Dipole Moment (Debye)
         X      -4.3069      Y      11.9645      Z       0.4364
       Tot      12.7236
    Quadrupole Moments (Debye-Ang)
        XX    -284.2497     XY     -16.5060     YY    -172.2180
        XZ       3.2833     YZ      35.9865     ZZ    -184.1450
    Octopole Moments (Debye-Ang^2)
       XXX    1656.5774    XXY     366.9550    XYY     450.0092
       YYY     477.4833    XXZ    -798.4153    XYZ    -215.4188
       YYZ    -447.8128    XZZ     490.5662    YZZ     316.0219
       ZZZ   -1222.4212
    Hexadecapole Moments (Debye-Ang^3)
      XXXX  -36892.9490   XXXY   -4428.7165   XXYY   -5604.3582
      XYYY   -3684.4218   YYYY   -4018.8305   XXXZ    6762.2557
      XXYZ    2066.1265   XYYZ    2127.0705   YYYZ    1737.2084
      XXZZ   -7861.3105   XYZZ   -2349.6441   YYZZ   -2365.1073
      XZZZ    5351.9907   YZZZ    2240.0183   ZZZZ   -7864.1695
 -----------------------------------------------------------------
 Calculating analytic gradient of the SCF energy
 Gradient of SCF Energy
            1           2           3           4           5           6
    1  -0.0107074  -0.0030078   0.0007587  -0.0075272  -0.0056085  -0.0035806
    2  -0.0030949  -0.0010195  -0.0052169   0.0135398  -0.0021465   0.0038288
    3   0.0012530  -0.0069765   0.0040185  -0.0021432   0.0029781  -0.0057585
            7           8           9          10          11          12
    1   0.0072618  -0.0129059   0.0044929   0.0015928  -0.0188604   0.0054723
    2  -0.0183614   0.0067064  -0.0005128   0.0000326   0.0026121  -0.0098838
    3   0.0117109  -0.0087104  -0.0009477   0.0015189   0.0122128  -0.0014090
           13          14          15          16          17          18
    1  -0.0005298   0.0024159  -0.0055811   0.0024436   0.0268224   0.0041035
    2  -0.0060232  -0.0009732  -0.0099787   0.0291820   0.0078412   0.0031273
    3   0.0072030  -0.0120871   0.0107756   0.0158275  -0.0049480  -0.0036025
           19          20          21          22          23          24
    1  -0.0166710   0.0031955   0.0004555  -0.0066611  -0.0001784   0.0018668
    2  -0.0392240  -0.0001400   0.0140681  -0.0323668   0.0051236   0.0012678
    3  -0.0147416  -0.0069401   0.0067690  -0.0168740  -0.0086816   0.0123399
           25          26          27          28          29          30
    1   0.0038561   0.0007672   0.0004963   0.0026169  -0.0023557  -0.0035827
    2   0.0000135  -0.0029952   0.0162422  -0.0048527  -0.0081089   0.0074804
    3   0.0059624  -0.0016175  -0.0018352  -0.0068428  -0.0002580   0.0131506
           31          32          33          34          35          36
    1   0.0025483  -0.0006056   0.0007010  -0.0050433   0.0004378  -0.0023740
    2   0.0096408   0.0041080   0.0013937   0.0061353  -0.0042484  -0.0000050
    3   0.0097105   0.0050836  -0.0040702  -0.0009270  -0.0004143   0.0003604
           37          38          39          40          41          42
    1   0.0047856  -0.0047054   0.0220171  -0.0031003  -0.0003737   0.0030793
    2   0.0086719  -0.0029295  -0.0051872  -0.0077885   0.0051973   0.0167251
    3   0.0036669  -0.0136749  -0.0077120  -0.0063539  -0.0131492   0.0296777
           43          44          45          46          47          48
    1   0.0229813  -0.0166508  -0.0127904   0.0004929   0.0130959   0.0216853
    2  -0.0285022   0.0263757   0.0005143  -0.0041294   0.0131296   0.0008941
    3  -0.0147538   0.0107667   0.0021689   0.0153680  -0.0067571  -0.0128764
           49          50          51          52
    1   0.0010163  -0.0176281  -0.0003076  -0.0001220
    2  -0.0084330  -0.0001780   0.0009812   0.0014671
    3  -0.0024436   0.0056329  -0.0006211  -0.0000290
 Max gradient component =       3.922E-02
 RMS gradient           =       1.027E-02
 Computing fast CPCM-SWIG gradient
 Updating gradient with PCM contributions...
 -- total gradient after adding PCM contribution --
---------------------------------------------------
  Atom         X              Y              Z     
---------------------------------------------------
   1      -0.010621      -0.003704      -0.001832
   2       0.000638      -0.008663      -0.004103
   3       0.000308      -0.002903       0.003976
   4      -0.007851       0.020232      -0.003111
   5      -0.005665      -0.002914       0.001201
   6      -0.003676       0.011237      -0.002687
   7       0.007039      -0.014855       0.012870
   8      -0.001639       0.006664      -0.014792
   9       0.004075      -0.000539      -0.000565
  10       0.002413       0.000034       0.004107
  11      -0.010610       0.009156       0.005384
  12      -0.008960       0.001919       0.006705
  13       0.002547      -0.001590       0.009921
  14       0.003769       0.005346      -0.013278
  15      -0.010468      -0.007633       0.018323
  16       0.003405       0.016443       0.006583
  17       0.023045       0.009153      -0.002753
  18       0.000246       0.009984      -0.004774
  19      -0.008856      -0.022046      -0.010027
  20       0.002039       0.010172      -0.007707
  21      -0.001554       0.011079       0.011930
  22      -0.006030      -0.021851      -0.005995
  23      -0.000509       0.009759      -0.007890
  24      -0.010205       0.006588      -0.001456
  25       0.009452       0.003411       0.023826
  26       0.008196      -0.009320      -0.002558
  27       0.000844      -0.004252       0.000998
  28       0.000663       0.001108       0.003909
  29      -0.002532       0.003709      -0.002043
  30      -0.000457      -0.002381      -0.004167
  31      -0.001632      -0.003475      -0.001587
  32       0.000581      -0.003422      -0.002069
  33      -0.001094      -0.001992       0.002976
  34       0.000632      -0.002590       0.000187
  35      -0.003312       0.001324      -0.001728
  36       0.002979       0.000201      -0.001844
  37      -0.001821      -0.002711      -0.001583
  38      -0.007881      -0.004507      -0.018121
  39       0.025573      -0.003009      -0.010675
  40      -0.006212      -0.006227      -0.005887
  41       0.001372      -0.001672       0.002378
  42       0.003178       0.008887       0.019513
  43       0.013789      -0.017621      -0.006977
  44      -0.000113       0.002615       0.000224
  45      -0.026315       0.001836       0.005375
  46       0.005744      -0.005064       0.016832
  47       0.012851       0.010704      -0.007198
  48       0.019646       0.000290      -0.013088
  49       0.001761      -0.009345      -0.004165
  50      -0.016843      -0.002517       0.005332
  51      -0.002415       0.000701       0.002780
  52       0.000487       0.004254      -0.000668
---------------------------------------------------
 Number of fixed atoms: 0
 Gradient time:  CPU 219.32 s  wall 29.44 s

 *****************************************************
             Starting BFGS Algorithm
 *****************************************************
            LIBOPT3 RUN PARAMETERS

  Geometry Optimization Coordinates :
	Delocalized Natural Internal Coordinates

  Step Length Selection Method :
	Eigenvector Following Algorithm

  Step Length Limiter :
	Root-Mean-Square of Gradient

  Convergence Criteria :
	Max Gradient Component    	3.00000000e-04
	Max Displacement Component	1.20000000e-03
	Absolute Energy Difference	1.00000000e-06

  Initial Hessian :
	Approximate Hessian - Model Internal Coordinate

  Type of Verification :
	Verify with final updated Hessian
 *****************************************************

	OPTIMIZATION CYCLE:	1

 Scaling Magnitude of Eigenvalues
 	Minimum: -25.00000000	 Maximum: 25.00000000
 150 Hessian Eigenvalues to form next step
   0.00200000   0.00211490   0.00216635   0.00271659   0.00301234
   0.00347002   0.00431232   0.00450452   0.00470800   0.00508231
   0.00572608   0.00672083   0.00696896   0.00719867   0.00765310
   0.00772140   0.00790062   0.00815220   0.00883587   0.01043321
   0.01132261   0.01133341   0.01191130   0.01303839   0.02126495
   0.02159558   0.02297081   0.02355658   0.02574367   0.03409023
   0.03706611   0.04187406   0.04194221   0.04284740   0.04552749
   0.04704428   0.05015019   0.05215641   0.05349035   0.05384954
   0.05463554   0.05497126   0.05540847   0.05559861   0.05641693
   0.05721100   0.05769016   0.06211013   0.06583290   0.06684372
   0.06814320   0.07542029   0.07676525   0.08283230   0.08505372
   0.08860881   0.09154099   0.09311582   0.10086181   0.11174084
   0.12442993   0.12691160   0.12740184   0.13262980   0.13528502
   0.15999927   0.16000000   0.16000000   0.16000000   0.16000000
   0.16000000   0.16000000   0.16000000   0.16000000   0.16030801
   0.17590896   0.17600046   0.18561752   0.19443100   0.21998154
   0.22000015   0.22022080   0.22040206   0.22135969   0.22537636
   0.24613667   0.24943836   0.24981144   0.24996777   0.24997053
   0.24998547   0.24999273   0.25000000   0.25000000   0.25000000
   0.25000000   0.25000000   0.25000000   0.26539806   0.27196176
   0.27364075   0.27396712   0.27563060   0.27940802   0.28241164
   0.28631358   0.28805303   0.28936130   0.29075503   0.31248454
   0.32615845   0.33767705   0.34010619   0.34202192   0.34298203
   0.34369471   0.34386859   0.34432307   0.34432493   0.34579022
   0.34609537   0.34693956   0.34743405   0.34781163   0.34804481
   0.34843407   0.34873678   0.35077812   0.35149948   0.36045131
   0.36485964   0.39054117   0.39284287   0.40606818   0.41743101
   0.43058457   0.44773148   0.45119726   0.47944347   0.53452396
   0.53967327   0.56181574   0.57161514   0.61028450   0.76394313
   0.83166073   0.83547987   0.87880329   0.90717044   0.91838787


 Minimum Search taking a RFO step
 Searching for Lambda that minimizes along all modes
	Value of Lambda   -0.02790149
	Norm  of Stepsize  0.35776797
	RMS   of Stepsize  0.02921163

	Performing Iterative Coordinate Back-Transformation

	  Starting from Previous Position

	  iter:	0	rms: 1.7667456790e-01	maxdev: 6.3739506499e-01
	  iter:	1	rms: 9.2456315122e-03	maxdev: 3.5260029367e-02
	  iter:	2	rms: 2.2669809489e-05	maxdev: 1.3656708087e-04
	  iter:	3	rms: 5.6266260671e-10	maxdev: 4.0411174512e-09	 Success!

	Finished Iterative Coordinate Back-Transformation
 Adding empirical dispersion correction 
 ----------------------------------------------------------------
 Doing -D3(BJ) with
 s6  =   1.00000e+00
 s8  =   1.98890e+00
 a1  =   3.98100e-01
 a2  =   4.42110e+00
 ----------------------------------------------------------------
 -D3 energy without 3body term =     -1.0770289981e-01 hartrees
 ----------------------------------------------------------------
             Standard Nuclear Orientation (Angstroms)
    I     Atom           X                Y                Z
 ----------------------------------------------------------------
    1      C      -8.5354731003    -2.7740469697     1.5329915052
    2      C      -7.9358905212    -1.4411187605     1.9420103620
    3      N      -6.8203261559    -1.6928712168     2.7134091170
    4      O      -8.3410599423    -0.3178978762     1.6678624397
    5      C      -6.5958313839    -3.1275980490     2.9327510908
    6      C      -6.0991509516    -0.5855781162     3.3407733286
    7      O      -5.2305744699    -3.4712926881     2.9386856419
    8      C      -7.2053090806    -3.5925322209     4.2941281795
    9      H      -9.3609657117    -2.9837924072     2.2287563559
   10      H      -8.9178171181    -2.7435847095     0.5055334677
   11      C      -4.7457891120    -0.3435878732     2.6626215749
   12      N      -4.3377808856     0.9272290039     2.6171505855
   13      C      -5.9099942707    -0.7454077550     4.8585458319
   14      C      -3.0455257000     1.3068722416     2.0491607115
   15      C      -1.9211979278     0.9670299170     3.0290621613
   16      O      -0.6478310160     1.4866969150     2.5126825635
   17      C      -0.0353510294     0.7498542333     1.5987116292
   18      C       1.2553824224     1.3802415272     1.1322026979
   19      O      -0.5097255566    -0.3145689475     1.1918130262
   20      C       2.4662207718     0.4065857980     1.1410914410
   21      C       2.4291536103    -0.5178194299    -0.1072236260
   22      O       2.3592785932    -0.5143854765     2.2407492105
   23      C       3.7677868137     1.2343182474     1.2389321984
   24      C       4.9597104752     0.4653002802     1.8112997330
   25      O       5.4087583885     0.6899973555     2.9190874039
   26      O       5.5234573174    -0.4579356624     1.0313630941
   27      H      -3.0665695435     2.3848152108     1.8528661565
   28      H      -2.8975618408     0.7568214016     1.1114882460
   29      H      -1.8266207127    -0.1158481534     3.1623663353
   30      H      -2.0416535734     1.4861834990     3.9848043244
   31      H       1.4723257639     2.2210694399     1.8005753448
   32      H       3.5925804238     2.0586511968     1.9406049036
   33      H       4.0140481940     1.6498522782     0.2522702910
   34      H      -6.7300891926     0.2895763526     3.1369771115
   35      H      -5.3465535526    -1.6570679404     5.0903481525
   36      H      -6.8936486796    -0.7964195889     5.3452875606
   37      H      -5.3580992120     0.1189065179     5.2522514658
   38      H       4.9405085924    -0.5322786333     0.2150839033
   39      O       3.3941651483    -0.6947887935    -0.8530676041
   40      O       1.2940924225    -1.1021930115    -0.3721234912
   41      H       1.0949537865     1.7814867284     0.1191817329
   42      H       2.5025680836     0.0031568556     3.0557453607
   43      O      -4.0301086780    -1.2606454794     2.1943730712
   44      H      -4.9373376433     1.6590245929     2.9849527734
   45      O      -8.3759572423    -3.4509034594     4.5794564931
   46      O      -6.3391273791    -4.1956837942     5.1134247011
   47      H      -4.7196488429    -2.6363674876     2.6104565843
   48      H      -5.4909049457    -4.1372426316     4.5700575053
   49      C      -7.3791828179    -3.7522441517     1.7596462786
   50      H       0.5813268566    -0.8103658456     0.3211796805
   51      H      -6.6989809386    -3.7553027351     0.8963692697
   52      H      -7.6984755357    -4.7783631287     1.9782325239
 ----------------------------------------------------------------
 Nuclear Repulsion Energy =        3046.89372524 hartrees
 There are      114 alpha and      114 beta electrons
 Discretize the solute cavity surface with Lebedev spheres
	Using 110 Lebedev grid points for each H atom
	Using 194 Lebedev grid points for other atoms
	Atomic van der Waals radii (Bondi set) will be scaled by 1.20
 Using smooth SwiG surface discretization
 Remove points where switching function is < 1.0e-08
 Keep 3266 surface tesserae and discard 4974 interior tesserae
 Molecular Surface Area = 440.195 Angst**2

 Applying Cartesian multipole field
    Component          Value
    ---------          -----
     (2,0,0)        1.00000E-12
     (0,2,0)        2.00000E-11
     (0,0,2)       -3.00000E-12
 Nucleus-field energy     = 6.5565850360e-08 hartrees
 Requested basis set is cc-pVDZ
 There are 246 shells and 530 basis functions
 A cutoff of  1.0D-12 yielded  15958 shell pairs
 There are     71396 function pairs (     79120 Cartesian)
 Smallest overlap matrix eigenvalue = 1.67E-03
 Guess MOs from SCF MO coefficient file

 -----------------------------------------------------------------------
  General SCF calculation program by
  Eric Jon Sundstrom, Paul Horn, Yuezhi Mao, Dmitri Zuev, Alec White,
  David Stuck, Shaama M.S., Shane Yost, Joonho Lee, David Small,
  Daniel Levine, Susi Lehtola, Hugh Burton, Evgeny Epifanovsky,
  Bang C. Huynh
 -----------------------------------------------------------------------
 Exchange:     0.2000 Hartree-Fock + 0.0800 Slater + 0.7200 B88
 Correlation:  0.1900 VWN1RPA + 0.8100 LYP
 Using SG-1 standard quadrature grid
 Dispersion:   Grimme D3
 A restricted SCF calculation will be
 performed using Roothaan-Hall, DIIS
 SCF converges when DIIS error is below 1.0e-08
 ---------------------------------------
  Cycle       Energy         DIIS error
 ---------------------------------------
    1   -1635.4337985831      1.04e-03  Roothaan Step
 ---------------------------------------
  Cycle       Energy         DIIS error
 ---------------------------------------
    1   -1635.4920776834      2.67e-04  
    2   -1635.4881593011      4.79e-04  
    3   -1635.4942099526      5.49e-05  
    4   -1635.4942794147      2.27e-05  
    5   -1635.4942931095      8.37e-06  
    6   -1635.4942948283      2.19e-06  
    7   -1635.4942949486      9.87e-07  
    8   -1635.4942949745      2.32e-07  
    9   -1635.4942949761      1.09e-07  
   10   -1635.4942949765      2.96e-08  
   11   -1635.4942949765      1.19e-08  
   12   -1635.4942949766      4.06e-09  Convergence criterion met
 ---------------------------------------
 SCF time:   CPU 1571.27s  wall 136.00s 

************** Final PCM Free Energy Summary **************
 G_electrostatic  =      -0.06711598 hartree =     -42.11591303 kcal/mol
 G_cavitation     =       0.00000000 hartree =       0.00000000 kcal/mol
 G_dispersion     =       0.00000000 hartree =       0.00000000 kcal/mol
 G_repulsion      =       0.00000000 hartree =       0.00000000 kcal/mol
 --------------------------------------------------
 Non-electrostatic Free Energy =       0.00000000 hartree =       0.00000000 kcal/mol
 Total                         =      -0.06711598 hartree =     -42.11591303 kcal/mol
 --------------------------------------------------
 SCF Energy (H0 + V/2)                       =   -1635.49429498 
 Solute Internal Energy (H0)                 =   -1635.42717900 
 Total Free Energy (H0 + V/2 + non-elec)     =   -1635.49429498 hartree
                                             = -1026288.16487387 kcal/mol
***********************************************************

 SCF   energy = -1635.49429498
 Total energy = -1635.49429498
 
 --------------------------------------------------------------
 
                    Orbital Energies (a.u.)
 --------------------------------------------------------------
 
 Alpha MOs
 -- Occupied --
-19.2157 -19.1889 -19.1820 -19.1812 -19.1718 -19.1663 -19.1530 -19.1453
-19.1423 -19.1365 -19.1282 -19.1224 -14.3785 -14.3722 -10.3533 -10.3326
-10.3220 -10.3216 -10.3107 -10.2978 -10.2962 -10.2870 -10.2561 -10.2496
-10.2373 -10.2222 -10.2098 -10.1989 -10.1968 -10.1948  -1.1426  -1.1157
 -1.1122  -1.1014  -1.0692  -1.0544  -1.0515  -1.0472  -1.0383  -1.0237
 -1.0225  -1.0144  -0.9510  -0.9452  -0.8308  -0.8254  -0.7912  -0.7633
 -0.7467  -0.7230  -0.6992  -0.6755  -0.6587  -0.6311  -0.6231  -0.6090
 -0.6010  -0.5975  -0.5886  -0.5788  -0.5673  -0.5590  -0.5380  -0.5343
 -0.5230  -0.5159  -0.5082  -0.5027  -0.4940  -0.4843  -0.4788  -0.4769
 -0.4694  -0.4663  -0.4617  -0.4593  -0.4560  -0.4530  -0.4485  -0.4431
 -0.4376  -0.4325  -0.4285  -0.4224  -0.4169  -0.4104  -0.4056  -0.4007
 -0.3982  -0.3963  -0.3959  -0.3904  -0.3841  -0.3812  -0.3776  -0.3733
 -0.3699  -0.3657  -0.3592  -0.3500  -0.3409  -0.3244  -0.3239  -0.3157
 -0.3142  -0.3129  -0.3078  -0.2958  -0.2877  -0.2798  -0.2765  -0.2758
 -0.2649  -0.2546
 -- Virtual --
 -0.0313  -0.0116  -0.0086  -0.0044   0.0047   0.0184   0.0465   0.0531
  0.0719   0.0807   0.0833   0.0890   0.0983   0.1027   0.1061   0.1075
  0.1082   0.1145   0.1246   0.1309   0.1331   0.1388   0.1427   0.1473
  0.1509   0.1545   0.1581   0.1655   0.1708   0.1742   0.1769   0.1871
  0.1931   0.2048   0.2095   0.2143   0.2154   0.2198   0.2240   0.2256
  0.2308   0.2366   0.2475   0.2528   0.2773   0.2933   0.2981   0.3025
  0.3069   0.3301   0.3368   0.3418   0.3524   0.3550   0.3708   0.3721
  0.3787   0.3871   0.4046   0.4118   0.4220   0.4315   0.4364   0.4378
  0.4464   0.4545   0.4576   0.4602   0.4700   0.4711   0.4729   0.4763
  0.4819   0.4838   0.4949   0.4987   0.5087   0.5120   0.5174   0.5182
  0.5283   0.5309   0.5350   0.5378   0.5432   0.5450   0.5552   0.5644
  0.5687   0.5767   0.5816   0.5890   0.5934   0.5976   0.6065   0.6082
  0.6129   0.6182   0.6196   0.6246   0.6256   0.6287   0.6323   0.6330
  0.6383   0.6443   0.6498   0.6529   0.6539   0.6603   0.6637   0.6667
  0.6674   0.6728   0.6802   0.6836   0.6851   0.6922   0.7105   0.7113
  0.7220   0.7277   0.7358   0.7519   0.7582   0.7679   0.7833   0.7896
  0.8073   0.8228   0.8265   0.8451   0.8485   0.8550   0.8631   0.8688
  0.8812   0.8840   0.8917   0.9009   0.9083   0.9240   0.9301   0.9371
  0.9482   0.9604   0.9704   0.9733   0.9845   0.9910   1.0035   1.0113
  1.0137   1.0256   1.0305   1.0320   1.0486   1.0519   1.0634   1.0704
  1.0722   1.0792   1.0841   1.0859   1.0904   1.0972   1.1007   1.1067
  1.1139   1.1196   1.1221   1.1273   1.1361   1.1409   1.1451   1.1560
  1.1669   1.1710   1.1829   1.1918   1.1955   1.1973   1.2013   1.2110
  1.2174   1.2249   1.2368   1.2434   1.2514   1.2622   1.2684   1.2811
  1.2850   1.3008   1.3032   1.3077   1.3264   1.3396   1.3454   1.3557
  1.3587   1.3629   1.3686   1.3754   1.3849   1.3859   1.3957   1.4092
  1.4189   1.4263   1.4381   1.4425   1.4444   1.4622   1.4729   1.4837
  1.4903   1.5018   1.5053   1.5127   1.5169   1.5236   1.5312   1.5391
  1.5425   1.5545   1.5547   1.5671   1.5825   1.5921   1.6000   1.6074
  1.6132   1.6202   1.6253   1.6285   1.6320   1.6398   1.6424   1.6464
  1.6553   1.6611   1.6661   1.6673   1.6766   1.6855   1.6916   1.6969
  1.7032   1.7063   1.7088   1.7137   1.7220   1.7274   1.7311   1.7362
  1.7412   1.7441   1.7492   1.7545   1.7682   1.7807   1.7838   1.7875
  1.7989   1.8068   1.8141   1.8202   1.8324   1.8342   1.8415   1.8473
  1.8552   1.8663   1.8695   1.8726   1.8888   1.8964   1.9026   1.9082
  1.9139   1.9272   1.9338   1.9409   1.9479   1.9581   1.9634   1.9817
  1.9869   2.0023   2.0081   2.0176   2.0249   2.0302   2.0411   2.0445
  2.0559   2.0649   2.0717   2.0752   2.0924   2.0973   2.1027   2.1156
  2.1231   2.1254   2.1282   2.1529   2.1581   2.1756   2.1809   2.1845
  2.2049   2.2118   2.2219   2.2360   2.2460   2.2579   2.2599   2.2711
  2.2819   2.2867   2.3060   2.3164   2.3242   2.3311   2.3493   2.3609
  2.3738   2.3786   2.3868   2.4088   2.4254   2.4294   2.4418   2.4461
  2.4523   2.4593   2.4633   2.4812   2.5077   2.5265   2.5360   2.5377
  2.5553   2.5568   2.5645   2.5794   2.5903   2.6105   2.6200   2.6294
  2.6365   2.6387   2.6525   2.6876   2.6957   2.7019   2.7056   2.7222
  2.7437   2.7491   2.7913   2.8058   2.8198   2.8222   2.8239   2.8555
  2.8729   2.8909   2.8968   2.9147   2.9194   2.9311   2.9396   2.9469
  2.9523   2.9846   3.0098   3.0242   3.0416   3.0544   3.0685   3.0723
  3.0765   3.0871   3.1273   3.1321   3.1350   3.1439   3.1474   3.1515
  3.1809   3.2469   3.2854   3.3035   3.3386   3.3403   3.3608   3.3679
  3.3738   3.3776   3.3873   3.4216   3.4570   3.4637   3.4741   3.4789
  3.4830   3.4974   3.5040   3.6795   3.6811   3.7201   3.7753   3.8561
 --------------------------------------------------------------
 
          Ground-State Mulliken Net Atomic Charges

     Atom                 Charge (a.u.)
  ----------------------------------------
      1 C                     0.016872
      2 C                     0.154816
      3 N                    -0.218387
      4 O                    -0.318881
      5 C                     0.025555
      6 C                    -0.013994
      7 O                    -0.338208
      8 C                     0.225987
      9 H                     0.056984
     10 H                     0.039043
     11 C                     0.227586
     12 N                    -0.103662
     13 C                     0.036518
     14 C                     0.092637
     15 C                     0.149014
     16 O                    -0.237628
     17 C                     0.252083
     18 C                     0.087776
     19 O                    -0.298931
     20 C                    -0.175432
     21 C                     0.282287
     22 O                    -0.276808
     23 C                     0.080770
     24 C                     0.127936
     25 O                    -0.285249
     26 O                    -0.174855
     27 H                     0.055179
     28 H                     0.047757
     29 H                     0.055413
     30 H                     0.057051
     31 H                     0.061317
     32 H                     0.043758
     33 H                     0.063803
     34 H                     0.031839
     35 H                     0.028702
     36 H                     0.050579
     37 H                     0.046786
     38 H                     0.175617
     39 O                    -0.312342
     40 O                    -0.175214
     41 H                     0.093571
     42 H                     0.190514
     43 O                    -0.360684
     44 H                     0.143453
     45 O                    -0.277418
     46 O                    -0.169815
     47 H                     0.191840
     48 H                     0.197338
     49 C                     0.091035
     50 H                     0.192336
     51 H                     0.033283
     52 H                     0.030472
  ----------------------------------------
  Sum of atomic charges =     0.000000

 -----------------------------------------------------------------
                    Cartesian Multipole Moments
 -----------------------------------------------------------------
    Charge (ESU x 10^10)
                -0.0000
    Dipole Moment (Debye)
         X      -3.5309      Y      10.7987      Z       1.3493
       Tot      11.4411
    Quadrupole Moments (Debye-Ang)
        XX    -280.0216     XY     -16.2114     YY    -171.6728
        XZ       2.4958     YZ      29.4121     ZZ    -179.5052
    Octopole Moments (Debye-Ang^2)
       XXX    1681.0120    XXY     330.2176    XYY     448.1408
       YYY     465.4658    XXZ    -791.9447    XYZ    -204.5290
       YYZ    -435.1942    XZZ     471.0587    YZZ     285.2351
       ZZZ   -1192.2188
    Hexadecapole Moments (Debye-Ang^3)
      XXXX  -37270.2003   XXXY   -4698.1002   XXYY   -5696.7553
      XYYY   -3805.1459   YYYY   -3997.2036   XXXZ    6960.2591
      XXYZ    1940.3043   XYYZ    2085.3910   YYYZ    1686.5583
      XXZZ   -7900.9753   XYZZ   -2313.4238   YYZZ   -2290.1616
      XZZZ    5283.7839   YZZZ    2109.6923   ZZZZ   -7720.9969
 -----------------------------------------------------------------
 Calculating analytic gradient of the SCF energy
 Gradient of SCF Energy
            1           2           3           4           5           6
    1  -0.0028953  -0.0037715   0.0001036   0.0013568  -0.0018088  -0.0000694
    2   0.0008387   0.0056408  -0.0029327  -0.0054634  -0.0001280  -0.0040641
    3   0.0021562  -0.0011927  -0.0013218   0.0010057  -0.0001424  -0.0055504
            7           8           9          10          11          12
    1  -0.0032863  -0.0064117   0.0019666  -0.0002749  -0.0121474   0.0120299
    2  -0.0179356   0.0014486   0.0000530  -0.0005747  -0.0014880  -0.0172297
    3   0.0003135   0.0025879   0.0008499  -0.0022182   0.0118728  -0.0066949
           13          14          15          16          17          18
    1  -0.0009785   0.0028888  -0.0023277   0.0024482   0.0095156   0.0026268
    2  -0.0031547  -0.0038872  -0.0080974   0.0161584  -0.0040044  -0.0067548
    3   0.0005218  -0.0046304  -0.0027731   0.0082515  -0.0065108   0.0003052
           19          20          21          22          23          24
    1  -0.0140930   0.0014551  -0.0113084  -0.0027019   0.0011829   0.0110786
    2  -0.0203949  -0.0030332  -0.0014675  -0.0171320  -0.0023811  -0.0073478
    3  -0.0051394  -0.0033264   0.0050072  -0.0110778  -0.0014301   0.0064934
           25          26          27          28          29          30
    1  -0.0015758   0.0080662  -0.0013046   0.0012071   0.0015451  -0.0008211
    2  -0.0039957   0.0073752   0.0190424  -0.0057771  -0.0107362   0.0102666
    3  -0.0115692   0.0188874  -0.0019312  -0.0088017   0.0004270   0.0155561
           31          32          33          34          35          36
    1   0.0047177  -0.0022386   0.0010483  -0.0048300   0.0026782  -0.0058929
    2   0.0125854   0.0072623   0.0027869   0.0074746  -0.0055830   0.0001487
    3   0.0111523   0.0081426  -0.0068889  -0.0016784   0.0007871   0.0018966
           37          38          39          40          41          42
    1   0.0070822  -0.0070730  -0.0096583   0.0128866  -0.0018696   0.0013046
    2   0.0113202   0.0042781  -0.0064860  -0.0017766   0.0048769   0.0111279
    3   0.0044714  -0.0041602  -0.0096641  -0.0091580  -0.0143420   0.0111164
           43          44          45          46          47          48
    1   0.0176461  -0.0155449   0.0118457  -0.0186778   0.0011588   0.0085438
    2  -0.0082468   0.0225067  -0.0039798  -0.0041634   0.0164295   0.0038534
    3  -0.0131790   0.0098784  -0.0011334   0.0169476  -0.0016823  -0.0115175
           49          50          51          52
    1   0.0029997   0.0019222   0.0014191  -0.0011628
    2   0.0005751   0.0132966   0.0009896  -0.0021197
    3   0.0000346   0.0113532  -0.0031004   0.0007991
 Max gradient component =       2.251E-02
 RMS gradient           =       7.997E-03
 Computing fast CPCM-SWIG gradient
 Updating gradient with PCM contributions...
 -- total gradient after adding PCM contribution --
---------------------------------------------------
  Atom         X              Y              Z     
---------------------------------------------------
   1      -0.002752       0.000297      -0.000789
   2      -0.000662      -0.002272       0.001709
   3      -0.000125      -0.000584      -0.001250
   4       0.001307       0.001451      -0.000031
   5      -0.001692      -0.000828      -0.001855
   6       0.000148       0.003219      -0.002041
   7      -0.004138      -0.014953       0.002211
   8       0.004644       0.000521      -0.002263
   9       0.001540       0.000054       0.001218
  10       0.000357      -0.000653       0.000154
  11      -0.005017       0.005242       0.005104
  12      -0.001817      -0.005470       0.001573
  13       0.002272       0.000454       0.003607
  14       0.003316       0.002478      -0.005443
  15      -0.005928      -0.005029       0.004917
  16       0.003321       0.003271      -0.000613
  17       0.005967      -0.001432      -0.003631
  18      -0.001172       0.000836      -0.000955
  19      -0.006750      -0.004529      -0.000937
  20       0.000104       0.006748      -0.003575
  21      -0.013391      -0.002920       0.011760
  22      -0.001694      -0.006174      -0.000281
  23       0.000586       0.003019      -0.001171
  24       0.000413      -0.004609      -0.005245
  25       0.001589      -0.000210       0.001716
  26       0.014227       0.003008       0.018255
  27      -0.000397      -0.000399       0.000653
  28      -0.000211      -0.000531       0.000929
  29       0.000723       0.000148      -0.001486
  30       0.001572       0.000596      -0.000926
  31       0.000563      -0.000764       0.000578
  32      -0.000084      -0.000876       0.000866
  33      -0.000653      -0.000752       0.000679
  34       0.000095      -0.000960      -0.000658
  35      -0.001575       0.000686      -0.000984
  36       0.000096       0.000188      -0.000735
  37       0.000040      -0.000112      -0.000484
  38      -0.009083       0.002739      -0.006794
  39      -0.004820      -0.004719      -0.013532
  40       0.010376      -0.001572      -0.010157
  41       0.000372      -0.001180       0.000241
  42       0.001376       0.002629       0.001070
  43       0.009746       0.001304      -0.005782
  44      -0.000117       0.000332      -0.000334
  45       0.000078      -0.002020       0.001196
  46      -0.013599      -0.004843       0.017121
  47       0.001277       0.013895      -0.002396
  48       0.005455       0.003461      -0.011119
  49       0.003568      -0.000543      -0.001434
  50       0.001486       0.010848       0.011260
  51      -0.000584       0.000810      -0.000136
  52      -0.000354       0.000703       0.000218
---------------------------------------------------
 Number of fixed atoms: 0
 Gradient time:  CPU 231.65 s  wall 29.47 s

     Step 1	:
        Energy is -1635.4942949766
                            Maximum         Tolerance       Converged?
         Gradient           4.78202832e-02	3.00000000e-04	false
         Displacement       9.12695658e-02	1.20000000e-03	false
         Energy change      7.82739700e-03	1.00000000e-06	false


	OPTIMIZATION CYCLE:	2

 Scaling Magnitude of Eigenvalues
 	Minimum: -25.00000000	 Maximum: 25.00000000
 150 Hessian Eigenvalues to form next step
   0.00199844   0.00211485   0.00216888   0.00271586   0.00301186
   0.00356062   0.00431233   0.00450429   0.00471644   0.00506447
   0.00572427   0.00684163   0.00699379   0.00719718   0.00766804
   0.00772635   0.00801206   0.00839876   0.00886667   0.01043661
   0.01132747   0.01143376   0.01194374   0.01303782   0.02125560
   0.02159567   0.02296547   0.02354634   0.02581003   0.03416954
   0.03684563   0.04178515   0.04201426   0.04415024   0.04549683
   0.04756587   0.05023573   0.05206370   0.05329708   0.05393588
   0.05463204   0.05509257   0.05539748   0.05570622   0.05634537
   0.05687755   0.05768104   0.06214385   0.06584003   0.06681449
   0.06814238   0.07599042   0.07771011   0.08278003   0.08547450
   0.08860147   0.09153933   0.09304198   0.10085137   0.11157577
   0.12435580   0.12681350   0.12748948   0.13278255   0.13468967
   0.15053323   0.15999933   0.16000000   0.16000000   0.16000000
   0.16000000   0.16000000   0.16000000   0.16006346   0.17448292
   0.17553244   0.18344183   0.18692533   0.19596873   0.20506068
   0.22000094   0.22021387   0.22131377   0.22363399   0.22593650
   0.23340141   0.24636333   0.24945636   0.24983971   0.24996798
   0.24997904   0.24998557   0.24999293   0.25000000   0.25000000
   0.25000000   0.25000000   0.26539416   0.27078464   0.27177333
   0.27363611   0.27430711   0.27728991   0.28158338   0.28216573
   0.28738682   0.28861276   0.28994965   0.29724411   0.31246728
   0.33347723   0.33873311   0.34036880   0.34217985   0.34304328
   0.34376122   0.34400950   0.34431126   0.34487677   0.34582008
   0.34630157   0.34707789   0.34757196   0.34790107   0.34826061
   0.34862624   0.34962746   0.35092727   0.35580738   0.35908642
   0.37520599   0.38666092   0.39151136   0.41081932   0.42694564
   0.43141649   0.44777378   0.45521054   0.48273107   0.53445192
   0.55345894   0.56561799   0.57682005   0.68311495   0.75006566
   0.81303136   0.83416052   0.87792784   0.90349908   0.91827467


 Minimum Search taking a RFO step
 Searching for Lambda that minimizes along all modes
	Value of Lambda   -0.02151355
	Norm  of Stepsize  0.44688193
	RMS   of Stepsize  0.03648776

	Performing Iterative Coordinate Back-Transformation

	  Starting from Previous Position

	  iter:	0	rms: 1.7781310754e-01	maxdev: 8.0577973128e-01
	  iter:	1	rms: 1.4405303159e-02	maxdev: 9.4281881979e-02
	  iter:	2	rms: 6.5548452827e-05	maxdev: 6.0691473551e-04
	  iter:	3	rms: 9.7568391330e-09	maxdev: 1.0355205979e-07	 Success!

	Finished Iterative Coordinate Back-Transformation
 Adding empirical dispersion correction 
 ----------------------------------------------------------------
 Doing -D3(BJ) with
 s6  =   1.00000e+00
 s8  =   1.98890e+00
 a1  =   3.98100e-01
 a2  =   4.42110e+00
 ----------------------------------------------------------------
 -D3 energy without 3body term =     -1.0794214600e-01 hartrees
 ----------------------------------------------------------------
             Standard Nuclear Orientation (Angstroms)
    I     Atom           X                Y                Z
 ----------------------------------------------------------------
    1      C      -8.6195183181    -2.6990790457     1.5923828042
    2      C      -7.9997189676    -1.3902183867     2.0181463216
    3      N      -6.8693088466    -1.6584997146     2.7498541183
    4      O      -8.4103943923    -0.2723021521     1.7758238402
    5      C      -6.6392041458    -3.0892927738     2.9219228656
    6      C      -6.1260059962    -0.5791266849     3.3782604276
    7      O      -5.2918279964    -3.4279226313     2.8322383610
    8      C      -7.1718211933    -3.5843924242     4.3026278470
    9      H      -9.4460587923    -2.9067568342     2.2932428972
   10      H      -9.0245058422    -2.6385494021     0.5694885463
   11      C      -4.7917143610    -0.3793011024     2.6671081400
   12      N      -4.3449622212     0.8765431079     2.5958353162
   13      C      -5.9063819924    -0.7470471108     4.8828785645
   14      C      -3.0649484540     1.2282092989     2.0134023325
   15      C      -1.9300955290     0.9058367847     2.9773101472
   16      O      -0.6788984719     1.4051124403     2.4566332019
   17      C      -0.0592992502     0.6527778196     1.5820005348
   18      C       1.2253099741     1.2881029012     1.1116498034
   19      O      -0.4916978126    -0.4280208019     1.2182763055
   20      C       2.4960216090     0.3878438780     1.1616872076
   21      C       2.7006736696    -0.5132674900    -0.0882426599
   22      O       2.4194901486    -0.5273167893     2.2408363983
   23      C       3.7154418629     1.3124915209     1.3096143885
   24      C       4.9557024354     0.5966277105     1.8088024739
   25      O       5.4203020935     0.7862729263     2.9039450784
   26      O       5.5202106419    -0.2666067296     0.9788710543
   27      H      -3.0823945420     2.3079027947     1.7994306324
   28      H      -2.9396351993     0.6670804921     1.0737749448
   29      H      -1.8268938870    -0.1754346826     3.1480085813
   30      H      -2.0459597711     1.4489763528     3.9265540980
   31      H       1.3958515772     2.1553735120     1.7663064034
   32      H       3.4821677027     2.1052834285     2.0367259468
   33      H       3.9335650651     1.7781872734     0.3333351293
   34      H      -6.7423453096     0.3149521755     3.1955274754
   35      H      -5.3390694567    -1.6635100799     5.1095273414
   36      H      -6.8796816100    -0.7859275755     5.3997346705
   37      H      -5.3329046757     0.1128779324     5.2663239885
   38      H       4.9220584243    -0.3280843865     0.2044100680
   39      O       3.7822560142    -0.5556757984    -0.6462877566
   40      O       1.7388561195    -1.2814636739    -0.5013838826
   41      H       1.0645585032     1.6730660344     0.0882202234
   42      H       2.4565980340    -0.0100472558     3.0459435207
   43      O      -4.1462651528    -1.3315519388     2.2065638076
   44      H      -4.9238229328     1.6201805043     2.9680445179
   45      O      -8.3136577194    -3.4312873598     4.6462049310
   46      O      -6.2972810377    -4.2073250175     5.0725861541
   47      H      -4.8094142888    -2.6175456135     2.4858700958
   48      H      -5.4695896313    -4.1578892804     4.5516186259
   49      C      -7.4739027955    -3.6883669092     1.7757372357
   50      H       0.8960405586    -1.1524986913     0.0455057731
   51      H      -6.8162124125    -3.6824406200     0.8901932738
   52      H      -7.7895080284    -4.7230133315     1.9838882843
 ----------------------------------------------------------------
 Nuclear Repulsion Energy =        3051.11968903 hartrees
 There are      114 alpha and      114 beta electrons
 Discretize the solute cavity surface with Lebedev spheres
	Using 110 Lebedev grid points for each H atom
	Using 194 Lebedev grid points for other atoms
	Atomic van der Waals radii (Bondi set) will be scaled by 1.20
 Using smooth SwiG surface discretization
 Remove points where switching function is < 1.0e-08
 Keep 3258 surface tesserae and discard 4982 interior tesserae
 Molecular Surface Area = 438.827 Angst**2

 Applying Cartesian multipole field
    Component          Value
    ---------          -----
     (2,0,0)        1.00000E-12
     (0,2,0)        2.00000E-11
     (0,0,2)       -3.00000E-12
 Nucleus-field energy     = 6.4870563731e-08 hartrees
 Requested basis set is cc-pVDZ
 There are 246 shells and 530 basis functions
 A cutoff of  1.0D-12 yielded  15920 shell pairs
 There are     71126 function pairs (     78801 Cartesian)
 Smallest overlap matrix eigenvalue = 1.59E-03
 Guess MOs from SCF MO coefficient file

 -----------------------------------------------------------------------
  General SCF calculation program by
  Eric Jon Sundstrom, Paul Horn, Yuezhi Mao, Dmitri Zuev, Alec White,
  David Stuck, Shaama M.S., Shane Yost, Joonho Lee, David Small,
  Daniel Levine, Susi Lehtola, Hugh Burton, Evgeny Epifanovsky,
  Bang C. Huynh
 -----------------------------------------------------------------------
 Exchange:     0.2000 Hartree-Fock + 0.0800 Slater + 0.7200 B88
 Correlation:  0.1900 VWN1RPA + 0.8100 LYP
 Using SG-1 standard quadrature grid
 Dispersion:   Grimme D3
 A restricted SCF calculation will be
 performed using Roothaan-Hall, DIIS
 SCF converges when DIIS error is below 1.0e-08
 ---------------------------------------
  Cycle       Energy         DIIS error
 ---------------------------------------
    1   -1635.3861300755      1.37e-03  Roothaan Step
 ---------------------------------------
  Cycle       Energy         DIIS error
 ---------------------------------------
    1   -1635.4798992719      3.89e-04  
    2   -1635.4711768416      7.05e-04  
    3   -1635.4840375648      6.71e-05  
    4   -1635.4841322033      3.30e-05  
    5   -1635.4841605421      9.60e-06  
    6   -1635.4841627364      2.98e-06  
    7   -1635.4841629727      1.05e-06  
    8   -1635.4841630011      2.58e-07  
    9   -1635.4841630033      9.49e-08  
   10   -1635.4841630036      3.32e-08  
   11   -1635.4841630037      1.10e-08  
   12   -1635.4841630036      3.70e-09  Convergence criterion met
 ---------------------------------------
 SCF time:   CPU 1583.54s  wall 140.00s 

************** Final PCM Free Energy Summary **************
 G_electrostatic  =      -0.06627111 hartree =     -41.58575042 kcal/mol
 G_cavitation     =       0.00000000 hartree =       0.00000000 kcal/mol
 G_dispersion     =       0.00000000 hartree =       0.00000000 kcal/mol
 G_repulsion      =       0.00000000 hartree =       0.00000000 kcal/mol
 --------------------------------------------------
 Non-electrostatic Free Energy =       0.00000000 hartree =       0.00000000 kcal/mol
 Total                         =      -0.06627111 hartree =     -41.58575042 kcal/mol
 --------------------------------------------------
 SCF Energy (H0 + V/2)                       =   -1635.48416300 
 Solute Internal Energy (H0)                 =   -1635.41789189 
 Total Free Energy (H0 + V/2 + non-elec)     =   -1635.48416300 hartree
                                             = -1026281.80696487 kcal/mol
***********************************************************

 SCF   energy = -1635.48416300
 Total energy = -1635.48416300
 
 --------------------------------------------------------------
 
                    Orbital Energies (a.u.)
 --------------------------------------------------------------
 
 Alpha MOs
 -- Occupied --
-19.2120 -19.2073 -19.1894 -19.1655 -19.1605 -19.1555 -19.1546 -19.1416
-19.1376 -19.1328 -19.1197 -19.1183 -14.3772 -14.3685 -10.3495 -10.3377
-10.3178 -10.3104 -10.3094 -10.2924 -10.2918 -10.2881 -10.2521 -10.2466
-10.2356 -10.2166 -10.2047 -10.1961 -10.1948 -10.1948  -1.1447  -1.1391
 -1.1205  -1.0985  -1.0790  -1.0587  -1.0553  -1.0549  -1.0403  -1.0387
 -1.0289  -1.0097  -0.9543  -0.9474  -0.8309  -0.8238  -0.7919  -0.7628
 -0.7438  -0.7219  -0.7008  -0.6796  -0.6591  -0.6449  -0.6303  -0.6136
 -0.6056  -0.5984  -0.5902  -0.5783  -0.5675  -0.5595  -0.5479  -0.5389
 -0.5169  -0.5097  -0.5091  -0.5051  -0.4931  -0.4885  -0.4829  -0.4784
 -0.4726  -0.4674  -0.4658  -0.4628  -0.4612  -0.4550  -0.4458  -0.4440
 -0.4405  -0.4341  -0.4299  -0.4209  -0.4181  -0.4091  -0.4035  -0.3992
 -0.3969  -0.3949  -0.3932  -0.3893  -0.3831  -0.3807  -0.3755  -0.3724
 -0.3671  -0.3650  -0.3547  -0.3477  -0.3440  -0.3316  -0.3244  -0.3117
 -0.3101  -0.3057  -0.3028  -0.2955  -0.2912  -0.2796  -0.2739  -0.2678
 -0.2630  -0.2519
 -- Virtual --
 -0.0280  -0.0120  -0.0042  -0.0004   0.0158   0.0229   0.0480   0.0538
  0.0726   0.0816   0.0860   0.0916   0.0969   0.1019   0.1068   0.1094
  0.1117   0.1130   0.1232   0.1272   0.1329   0.1409   0.1468   0.1519
  0.1565   0.1570   0.1654   0.1673   0.1718   0.1782   0.1869   0.1879
  0.1985   0.2050   0.2142   0.2195   0.2234   0.2273   0.2301   0.2348
  0.2437   0.2466   0.2595   0.2688   0.2851   0.3008   0.3066   0.3098
  0.3112   0.3346   0.3394   0.3452   0.3530   0.3583   0.3741   0.3781
  0.3883   0.3917   0.4082   0.4162   0.4241   0.4340   0.4389   0.4423
  0.4493   0.4566   0.4621   0.4661   0.4743   0.4775   0.4817   0.4848
  0.4863   0.4891   0.5002   0.5042   0.5151   0.5175   0.5245   0.5336
  0.5363   0.5371   0.5407   0.5426   0.5499   0.5552   0.5605   0.5666
  0.5743   0.5782   0.5826   0.5919   0.5990   0.6021   0.6082   0.6132
  0.6152   0.6201   0.6256   0.6282   0.6296   0.6322   0.6335   0.6362
  0.6371   0.6452   0.6517   0.6542   0.6569   0.6612   0.6665   0.6689
  0.6695   0.6723   0.6807   0.6840   0.6866   0.6948   0.7123   0.7132
  0.7238   0.7283   0.7424   0.7539   0.7594   0.7675   0.7847   0.7901
  0.8096   0.8256   0.8295   0.8368   0.8480   0.8537   0.8614   0.8711
  0.8812   0.8856   0.9001   0.9089   0.9151   0.9193   0.9321   0.9387
  0.9496   0.9660   0.9728   0.9796   0.9875   0.9947   1.0053   1.0109
  1.0166   1.0186   1.0352   1.0387   1.0463   1.0551   1.0633   1.0669
  1.0731   1.0746   1.0867   1.0888   1.0989   1.1025   1.1071   1.1104
  1.1146   1.1217   1.1268   1.1308   1.1365   1.1490   1.1507   1.1577
  1.1665   1.1756   1.1836   1.1956   1.1975   1.2013   1.2056   1.2159
  1.2241   1.2281   1.2345   1.2487   1.2505   1.2652   1.2695   1.2838
  1.2925   1.3048   1.3124   1.3211   1.3238   1.3440   1.3448   1.3583
  1.3619   1.3706   1.3724   1.3763   1.3814   1.3955   1.4169   1.4247
  1.4312   1.4374   1.4431   1.4469   1.4565   1.4701   1.4727   1.4873
  1.4976   1.5058   1.5080   1.5183   1.5235   1.5303   1.5349   1.5445
  1.5508   1.5608   1.5636   1.5757   1.5861   1.6010   1.6053   1.6094
  1.6201   1.6247   1.6264   1.6339   1.6356   1.6375   1.6422   1.6530
  1.6552   1.6627   1.6707   1.6730   1.6886   1.6898   1.6950   1.6998
  1.7035   1.7097   1.7128   1.7134   1.7304   1.7358   1.7412   1.7425
  1.7477   1.7518   1.7622   1.7647   1.7699   1.7850   1.7874   1.7925
  1.8062   1.8150   1.8207   1.8230   1.8309   1.8369   1.8458   1.8477
  1.8641   1.8748   1.8844   1.8863   1.8999   1.9087   1.9145   1.9186
  1.9254   1.9360   1.9420   1.9460   1.9583   1.9623   1.9727   1.9914
  2.0003   2.0073   2.0195   2.0278   2.0397   2.0434   2.0507   2.0524
  2.0703   2.0738   2.0843   2.0906   2.0998   2.1032   2.1078   2.1247
  2.1269   2.1314   2.1394   2.1580   2.1641   2.1701   2.1837   2.1888
  2.2014   2.2207   2.2233   2.2399   2.2544   2.2590   2.2669   2.2732
  2.2826   2.2900   2.2960   2.3090   2.3294   2.3455   2.3516   2.3567
  2.3772   2.3845   2.3897   2.4055   2.4215   2.4380   2.4404   2.4469
  2.4498   2.4582   2.4641   2.4789   2.5089   2.5242   2.5278   2.5338
  2.5542   2.5610   2.5665   2.5796   2.5893   2.6149   2.6342   2.6359
  2.6371   2.6508   2.6590   2.6987   2.7076   2.7127   2.7286   2.7310
  2.7445   2.7537   2.7563   2.8096   2.8358   2.8414   2.8522   2.8788
  2.8865   2.9010   2.9087   2.9298   2.9488   2.9611   2.9664   2.9815
  2.9982   3.0030   3.0295   3.0402   3.0637   3.0765   3.0861   3.1008
  3.1138   3.1327   3.1544   3.1639   3.1678   3.1756   3.1879   3.2033
  3.2068   3.2610   3.2957   3.3081   3.3549   3.3608   3.3627   3.3887
  3.3923   3.4078   3.4211   3.4254   3.4739   3.4811   3.4900   3.4949
  3.5094   3.5193   3.5393   3.7024   3.7116   3.7197   3.9000   3.9310
 --------------------------------------------------------------
 
          Ground-State Mulliken Net Atomic Charges

     Atom                 Charge (a.u.)
  ----------------------------------------
      1 C                     0.016230
      2 C                     0.147184
      3 N                    -0.212113
      4 O                    -0.312825
      5 C                     0.018863
      6 C                    -0.014427
      7 O                    -0.321553
      8 C                     0.210298
      9 H                     0.055460
     10 H                     0.038297
     11 C                     0.225799
     12 N                    -0.098954
     13 C                     0.034066
     14 C                     0.086124
[...]
  2.7519   2.7519   2.7823   2.8001   2.8207   2.8244   2.8551   2.8684
  2.8747   2.8885   2.9047   2.9200   2.9254   2.9401   2.9483   2.9585
  2.9745   2.9973   3.0114   3.0135   3.0496   3.0585   3.0633   3.0755
  3.0826   3.0879   3.1208   3.1383   3.1432   3.1505   3.1532   3.1556
  3.1795   3.2639   3.3132   3.3241   3.3361   3.3459   3.3567   3.3667
  3.3712   3.3792   3.3886   3.4194   3.4612   3.4682   3.4741   3.4832
  3.4846   3.5023   3.5043   3.6847   3.7037   3.7778   3.7970   3.8346
 --------------------------------------------------------------
 
          Ground-State Mulliken Net Atomic Charges

     Atom                 Charge (a.u.)
  ----------------------------------------
      1 C                     0.017572
      2 C                     0.150783
      3 N                    -0.208446
      4 O                    -0.321564
      5 C                     0.028777
      6 C                    -0.014103
      7 O                    -0.318580
      8 C                     0.222674
      9 H                     0.057725
     10 H                     0.042191
     11 C                     0.232463
     12 N                    -0.108405
     13 C                     0.035037
     14 C                     0.087924
     15 C                     0.147473
     16 O                    -0.235357
     17 C                     0.253663
     18 C                     0.086299
     19 O                    -0.307308
     20 C                    -0.171428
     21 C                     0.302318
     22 O                    -0.272483
     23 C                     0.077715
     24 C                     0.129379
     25 O                    -0.289003
     26 O                    -0.183443
     27 H                     0.053534
     28 H                     0.044501
     29 H                     0.051781
     30 H                     0.055942
     31 H                     0.059557
     32 H                     0.040023
     33 H                     0.062549
     34 H                     0.025077
     35 H                     0.027671
     36 H                     0.051577
     37 H                     0.047412
     38 H                     0.172703
     39 O                    -0.306610
     40 O                    -0.163228
     41 H                     0.092179
     42 H                     0.190374
     43 O                    -0.357691
     44 H                     0.142180
     45 O                    -0.279350
     46 O                    -0.155863
     47 H                     0.176705
     48 H                     0.188458
     49 C                     0.083790
     50 H                     0.188814
     51 H                     0.033897
     52 H                     0.032144
  ----------------------------------------
  Sum of atomic charges =     0.000000

 -----------------------------------------------------------------
                    Cartesian Multipole Moments
 -----------------------------------------------------------------
    Charge (ESU x 10^10)
                -0.0000
    Dipole Moment (Debye)
         X      -4.4421      Y       9.4660      Z       0.1735
       Tot      10.4578
    Quadrupole Moments (Debye-Ang)
        XX    -289.8892     XY     -17.3895     YY    -174.4445
        XZ       2.1330     YZ      26.7924     ZZ    -174.7137
    Octopole Moments (Debye-Ang^2)
       XXX    1606.2336    XXY     273.1676    XYY     440.3876
       YYY     456.7370    XXZ    -825.7672    XYZ    -207.4314
       YYZ    -436.3209    XZZ     479.6986    YZZ     274.4135
       ZZZ   -1173.2674
    Hexadecapole Moments (Debye-Ang^3)
      XXXX  -37758.8248   XXXY   -4817.7201   XXYY   -5891.7036
      XYYY   -3887.5765   YYYY   -4117.6139   XXXZ    7116.6110
      XXYZ    1807.8701   XYYZ    2053.7566   YYYZ    1639.5523
      XXZZ   -7879.8652   XYZZ   -2304.4493   YYZZ   -2257.6703
      XZZZ    5240.8510   YZZZ    2049.4329   ZZZZ   -7395.8120
 -----------------------------------------------------------------
 Calculating analytic gradient of the SCF energy
 Gradient of SCF Energy
            1           2           3           4           5           6
    1  -0.0001198  -0.0021831  -0.0000285  -0.0005208  -0.0000761  -0.0004533
    2   0.0004064   0.0083764  -0.0019203  -0.0069963   0.0006310  -0.0068357
    3   0.0029981  -0.0023974  -0.0001912   0.0006050   0.0017307  -0.0040973
            7           8           9          10          11          12
    1   0.0004202  -0.0114355  -0.0000663  -0.0004442  -0.0064690   0.0121248
    2  -0.0027090   0.0017974  -0.0001055   0.0003267  -0.0061096  -0.0105105
    3  -0.0014652   0.0050437  -0.0000644  -0.0029193   0.0058270  -0.0098726
           13          14          15          16          17          18
    1  -0.0036216  -0.0012466   0.0049024  -0.0017081   0.0039179   0.0043149
    2  -0.0030831  -0.0061606  -0.0032044   0.0144599  -0.0014254  -0.0069802
    3  -0.0028991   0.0029260  -0.0083891   0.0051873  -0.0015653   0.0030238
           19          20          21          22          23          24
    1  -0.0061201   0.0024215   0.0010003   0.0000868   0.0011944   0.0137922
    2  -0.0179220  -0.0087677   0.0014010  -0.0137413  -0.0052789   0.0010162
    3  -0.0005185   0.0026960  -0.0053798  -0.0084301   0.0007740   0.0126299
           25          26          27          28          29          30
    1  -0.0063334  -0.0078405  -0.0017355   0.0019991   0.0007011  -0.0029894
    2  -0.0083228   0.0048576   0.0175753  -0.0062019  -0.0112096   0.0123630
    3  -0.0142950  -0.0001139  -0.0053117  -0.0089626   0.0046644   0.0147908
           31          32          33          34          35          36
    1   0.0031994  -0.0019864   0.0006503  -0.0044259   0.0043982  -0.0049243
    2   0.0155228   0.0087422   0.0021376   0.0083875  -0.0059404  -0.0005250
    3   0.0068500   0.0053779  -0.0080744   0.0006307   0.0005830   0.0028164
           37          38          39          40          41          42
    1   0.0066030   0.0029601  -0.0026258   0.0025241  -0.0029930  -0.0006457
    2   0.0101856   0.0025384  -0.0017462  -0.0008277   0.0025008   0.0111491
    3   0.0054557   0.0029681   0.0032263  -0.0001529  -0.0157640   0.0087100
           43          44          45          46          47          48
    1   0.0069376  -0.0136994   0.0119813  -0.0053577   0.0002676   0.0036021
    2  -0.0093161   0.0206594  -0.0030889   0.0012963   0.0023763  -0.0001029
    3  -0.0068099   0.0119320  -0.0028942   0.0001979   0.0002955  -0.0004737
           49          50          51          52
    1  -0.0004816  -0.0006568   0.0023940  -0.0012045
    2   0.0011403   0.0022265  -0.0000584  -0.0029835
    3   0.0018031   0.0000734  -0.0032928   0.0005180
 Max gradient component =       2.066E-02
 RMS gradient           =       6.416E-03
 Computing fast CPCM-SWIG gradient
 Updating gradient with PCM contributions...
 -- total gradient after adding PCM contribution --
---------------------------------------------------
  Atom         X              Y              Z     
---------------------------------------------------
   1       0.000012      -0.000018      -0.000021
   2      -0.000011      -0.000018       0.000028
   3      -0.000002      -0.000021       0.000015
   4       0.000012      -0.000014      -0.000021
   5       0.000015       0.000015      -0.000000
   6       0.000012      -0.000020       0.000006
   7       0.000037       0.000011       0.000026
   8       0.000002       0.000002       0.000002
   9       0.000002      -0.000011       0.000012
  10       0.000002      -0.000027       0.000007
  11      -0.000023      -0.000027      -0.000072
  12       0.000007       0.000022       0.000033
  13      -0.000006       0.000016      -0.000005
  14       0.000016       0.000003      -0.000008
  15      -0.000022      -0.000027       0.000028
  16       0.000008       0.000033      -0.000016
  17      -0.000019       0.000007       0.000023
  18      -0.000038       0.000030      -0.000045
  19       0.000037      -0.000048      -0.000047
  20       0.000040      -0.000050       0.000060
  21      -0.000049       0.000025      -0.000037
  22       0.000017       0.000040       0.000011
  23      -0.000017       0.000003       0.000001
  24       0.000001       0.000073       0.000014
  25      -0.000006       0.000008      -0.000003
  26      -0.000020      -0.000025      -0.000025
  27      -0.000029      -0.000012      -0.000005
  28       0.000008      -0.000000      -0.000027
  29      -0.000018       0.000021      -0.000007
  30       0.000010       0.000023      -0.000019
  31      -0.000001       0.000004      -0.000013
  32      -0.000014       0.000004      -0.000010
  33       0.000003       0.000010      -0.000008
  34      -0.000004      -0.000001      -0.000003
  35      -0.000002       0.000005       0.000004
  36      -0.000001       0.000006       0.000005
  37      -0.000005       0.000012      -0.000005
  38       0.000027      -0.000008       0.000002
  39       0.000042       0.000017       0.000009
  40      -0.000011       0.000002       0.000059
  41       0.000001      -0.000014      -0.000008
  42      -0.000019       0.000002       0.000010
  43       0.000032      -0.000003       0.000020
  44      -0.000019      -0.000003      -0.000027
  45       0.000014       0.000006      -0.000005
  46       0.000030       0.000005      -0.000015
  47      -0.000077      -0.000007       0.000029
  48       0.000007       0.000002       0.000042
  49       0.000004      -0.000001       0.000005
  50      -0.000000      -0.000013      -0.000021
  51       0.000011      -0.000023       0.000012
  52       0.000007      -0.000015       0.000013
---------------------------------------------------
 Number of fixed atoms: 0
 Gradient time:  CPU 223.42 s  wall 30.85 s

     Step 39	:
        Energy is -1635.5022115430
                            Maximum         Tolerance       Converged?
         Gradient           1.56764863e-04	3.00000000e-04	true
         Displacement       7.78597518e-03	1.20000000e-03	false
         Energy change      8.76560534e-07	1.00000000e-06	true

	 Optimization Converged in 39 cycles

 *****************************************************
             End of BFGS Algorithm
 *****************************************************
		----------------------------------
		   Verification of Optimization
		----------------------------------

 Eigenvalues of Hessian in Optimization Verification
   0.00061556   0.00249584   0.00301278   0.00441777   0.00466723
   0.00499274   0.00540623   0.00549936   0.00646397   0.00710287
   0.00718145   0.00890634   0.00983302   0.01068110   0.01136283
   0.01295378   0.01321271   0.01714631   0.02382107   0.02620359
   0.03010640   0.03261774   0.03453092   0.03534328   0.03866387
   0.04054977   0.04531630   0.04741576   0.04790553   0.04811552
   0.04996958   0.05061067   0.05300811   0.05312319   0.05422297
   0.05455558   0.05506749   0.05522303   0.05546213   0.05625343
   0.05670632   0.05779339   0.05901375   0.05958917   0.06282200
   0.06549358   0.06809567   0.06977943   0.07234680   0.07403336
   0.08074430   0.08246163   0.08653547   0.08869762   0.09214468
   0.09354476   0.10024608   0.10046326   0.10198153   0.11296445
   0.12486060   0.13575474   0.13777326   0.14107856   0.14410914
   0.15852789   0.15980264   0.16005636   0.16021297   0.16064673
   0.16465868   0.17268766   0.17908564   0.19072419   0.19429815
   0.19824809   0.20023420   0.21726990   0.21933029   0.22201628
   0.22738459   0.23172976   0.23460335   0.24657503   0.24795620
   0.24864725   0.25041990   0.25081178   0.25295162   0.25689772
   0.26027000   0.26354198   0.26673369   0.26760296   0.27517905
   0.27670352   0.27968271   0.28195698   0.28466423   0.28497074
   0.28868819   0.29250198   0.29742822   0.30114865   0.31067445
   0.31700504   0.33000554   0.33866050   0.33983600   0.34167178
   0.34249112   0.34359775   0.34384003   0.34410716   0.34441866
   0.34516860   0.34683013   0.34703243   0.34738127   0.34782344
   0.34808720   0.34880557   0.34903574   0.35051504   0.35099373
   0.35547281   0.36454044   0.37175715   0.37824266   0.39728549
   0.42009498   0.42716563   0.44667194   0.44773422   0.45643216
   0.48361991   0.53625763   0.54878634   0.56386474   0.56716118
   0.62030871   0.67512272   0.75991259   0.82083141   0.83335909
   0.88091172   0.90720012   0.92870714   0.96225247   3.25296308


 Found a minimum
		---------------------------------
		       End of Verification
		---------------------------------

 Final energy is -1635.502211543000

	******************************
	**  OPTIMIZATION CONVERGED  **
	******************************
 Adding empirical dispersion correction 
 ----------------------------------------------------------------
 Doing -D3(BJ) with
 s6  =   1.00000
 s8  =   1.98890
 a1  =   0.39810
 a2  =   4.42110
 ----------------------------------------------------------------
 -D3 energy without 3body term =     -0.1076115268 hartrees
 ----------------------------------------------------------------
             Standard Nuclear Orientation (Angstroms)
    I     Atom           X                Y                Z
 ----------------------------------------------------------------
    1      C      -8.5576469994    -2.5218863796     1.4270330500
    2      C      -7.8994946553    -1.2698292088     1.9775515813
    3      N      -6.8488861687    -1.6547692269     2.7786217731
    4      O      -8.2305419049    -0.1070042820     1.7817279160
    5      C      -6.6851481324    -3.1042452550     2.8752782741
    6      C      -6.0483818300    -0.6605492986     3.4850932093
    7      O      -5.3422174355    -3.5196000835     2.8358162519
    8      C      -7.2909508785    -3.6339518797     4.2003297011
    9      H      -9.4799981597    -2.6960480784     2.0027558180
   10      H      -8.8285179092    -2.3811647080     0.3724571140
   11      C      -4.7488607076    -0.4023179999     2.7106470782
   12      N      -4.3455171541     0.8753404908     2.6476849123
   13      C      -5.7304765842    -1.0340957515     4.9367751111
   14      C      -3.0926515105     1.2637336644     2.0214957174
   15      C      -1.9368904236     1.1522276886     3.0150947847
   16      O      -0.7023758331     1.5911963736     2.3847279791
   17      C      -0.0295172249     0.6966102775     1.6738095134
   18      C       1.2073362279     1.2852383931     1.0384407825
   19      O      -0.3950670227    -0.4706097770     1.5544036887
   20      C       2.4821598849     0.4148814209     1.2216304880
   21      C       2.5083124648    -0.7733030709     0.2197194637
   22      O       2.4908174173    -0.2120029195     2.5035161866
   23      C       3.7137849623     1.3265466577     1.0355417391
   24      C       5.0156301934     0.7573987082     1.5920874852
   25      O       5.5801573104     1.2497955305     2.5498206411
   26      O       5.5333949494    -0.3014600248     0.9650685981
   27      H      -3.1846446305     2.2963480704     1.6605447469
   28      H      -2.9119602729     0.5984410253     1.1666448799
   29      H      -1.8199076189     0.1194575097     3.3666989533
   30      H      -2.0713024858     1.8327698501     3.8641004072
   31      H       1.3789116760     2.2719851854     1.4847117932
   32      H       3.5351731781     2.2607502239     1.5828071236
   33      H       3.8341397745     1.5692752371    -0.0312703076
   34      H      -6.6507813129     0.2576634476     3.4637655733
   35      H      -5.1157911088    -1.9428818515     4.9903565527
   36      H      -6.6622130322    -1.1904587473     5.4981065990
   37      H      -5.1716979677    -0.2117193592     5.4063458344
   38      H       4.8932365353    -0.5880914194     0.2582005099
   39      O       3.4800684166    -1.0043979045    -0.4938874195
   40      O       1.4531096744    -1.5506844908     0.1621205704
   41      H       0.9979642558     1.4423218671    -0.0329136544
   42      H       2.5780070040     0.4858416423     3.1760730372
   43      O      -4.0969113384    -1.3271576458     2.1892912200
   44      H      -4.9051231016     1.5913683651     3.0995765519
   45      O      -8.4307429740    -3.4016185789     4.5422016701
   46      O      -6.4621150778    -4.3944919426     4.9177059042
   47      H      -4.7840993474    -2.7514863476     2.5059590274
   48      H      -5.6084475438    -4.3806522796     4.4207065820
   49      C      -7.5186080703    -3.6162225619     1.6745399257
   50      H       0.6996898498    -1.2131275636     0.7522409696
   51      H      -6.8185658451    -3.6905239017     0.8299450161
   52      H      -7.9456381125    -4.6089024908     1.8652594756
 ----------------------------------------------------------------
 Nuclear Repulsion Energy =        3046.73899653 hartrees
 There are      114 alpha and      114 beta electrons

Z-matrix Print:
$molecule
0 1
O 
C  1 1.245864
N  2 1.341291 1 122.012675
H  3 1.014919 2 119.033756 1 -179.159077 0
C  3 1.453490 2 122.273815 1 -2.850396 0
H  5 1.097744 3 108.710304 2 153.229726 0
H  5 1.098196 3 108.378847 2 34.733184 0
C  5 1.528220 3 110.627416 2 -85.599805 0
H  8 1.096364 5 111.436459 3 -62.505515 0
H  8 1.097235 5 110.956104 3 61.003837 0
O  8 1.453988 5 109.768322 3 -177.926804 0
C  11 1.326057 8 117.359828 5 -85.124719 0
O  12 1.228937 11 122.813100 8 -1.359739 0
C  12 1.509961 11 112.224589 8 178.256556 0
H  14 1.096479 12 107.922622 11 11.758074 0
H  14 1.102865 12 107.985723 11 -103.904915 0
C  2 1.534668 1 121.963333 3 -178.870049 0
H  17 1.098387 2 108.297067 1 -155.545467 0
N  17 1.458898 2 109.568399 1 -41.500165 0
C  19 1.376107 17 120.675748 2 -99.573445 0
O  20 1.224786 19 124.402936 17 0.939297 0
C  19 1.461894 17 125.607109 2 83.279756 0
O  22 1.406250 19 113.450706 17 -43.523833 0
H  23 1.005137 22 108.285945 19 -14.828407 0
C  20 1.517855 19 108.145553 17 -178.046438 0
H  25 1.097863 20 110.465566 19 -139.255301 0
H  25 1.101145 20 107.700278 19 102.517538 0
C  25 1.529194 20 103.708765 19 -16.106785 0
H  28 1.097334 25 114.273520 20 148.422659 0
H  28 1.099509 25 110.893903 20 -88.343294 0
C  17 1.532312 2 110.085456 1 84.607541 0
H  31 1.098454 17 111.345804 2 -60.177639 0
H  31 1.098943 17 110.041426 2 178.370666 0
H  31 1.099560 17 109.128453 2 59.286693 0
H  13 1.547026 12 107.202421 11 -175.699233 0
O  35 1.014805 13 170.595007 12 -26.101995 0
C  36 1.311904 35 111.994725 13 44.820728 0
O  37 1.227579 36 119.975974 35 -176.011329 0
C  22 1.550273 19 110.580770 17 76.994233 0
O  39 1.212428 22 122.880794 19 53.514563 0
O  39 1.334173 22 114.304972 19 -128.031162 0
H  41 0.987901 39 104.971090 22 3.503002 0
C  14 1.554431 12 113.823669 11 133.034856 0
O  43 1.426986 14 110.904959 12 -36.335752 0
H  44 0.973099 43 107.840733 14 -66.406140 0
C  43 1.543588 14 108.027260 12 -158.534246 0
H  46 1.097332 43 108.229075 14 44.136079 0
H  46 1.100677 43 109.532409 14 -73.702514 0
C  46 1.525934 43 114.611585 14 162.089647 0
O  49 1.215894 46 122.164170 43 -112.375223 0
O  49 1.335071 46 117.089968 43 68.852048 0
H  51 0.995803 49 108.201419 46 -5.222473 0
$end

 -----------------------------------------------------------------------
                  END OF GEOMETRY OPTIMIZER USING LIBOPT3               
 -----------------------------------------------------------------------
 Total job time:  6753.24s(wall), 71332.15s(cpu) 
 Sun Sep  7 08:14:19 2025

        *************************************************************
        *                                                           *
        *  Thank you very much for using Q-Chem.  Have a nice day.  *
        *                                                           *
        *************************************************************


remove work dirs /scratch/cooksy_group/qchem639745.0 -- /scratch/cooksy_group/qchem639745.0
rm -rf /scratch/cooksy_group/qchem639745.0
rm -rf /scratch/cooksy_group/qchem639745
